
                                 *****************
                                 * O   R   C   A *
                                 *****************

                                            #,                                       
                                            ###                                      
                                            ####                                     
                                            #####                                    
                                            ######                                   
                                           ########,                                 
                                     ,,################,,,,,                         
                               ,,#################################,,                 
                          ,,##########################################,,             
                       ,#########################################, ''#####,          
                    ,#############################################,,   '####,        
                  ,##################################################,,,,####,       
                ,###########''''           ''''###############################       
              ,#####''   ,,,,##########,,,,          '''####'''          '####       
            ,##' ,,,,###########################,,,                        '##       
           ' ,,###''''                  '''############,,,                           
         ,,##''                                '''############,,,,        ,,,,,,###''
      ,#''                                            '''#######################'''  
     '                                                          ''''####''''         
             ,#######,   #######,   ,#######,      ##                                
            ,#'     '#,  ##    ##  ,#'     '#,    #''#        ,####,    ,#,          
            ##       ##  ##   ,#'  ##            #'  '#       #'       ,# #          
            ##       ##  #######   ##           ,######,      #####,      #          
            '#,     ,#'  ##    ##  '#,     ,#' ,#      #,     #,   #      #          
             '#######'   ##     ##  '#######'  #'      '#     '####' #    #          



                #########################################################
                #                        -***-                          #
                #          Department of theory and spectroscopy        #
                #                                                       #
                #                      Frank Neese                      #
                #                                                       #
                #     Directorship, Architecture, Infrastructure        #
                #                    SHARK, DRIVERS                     #
                #        Core code/Algorithms in most modules           #
                #                                                       #
                #        Max Planck Institute fuer Kohlenforschung      #
                #                Kaiser Wilhelm Platz 1                 #
                #                 D-45470 Muelheim/Ruhr                 #
                #                      Germany                          #
                #                                                       #
                #                  All rights reserved                  #
                #                        -***-                          #
                #########################################################


                         Program Version 6.1.1  -  RELEASE   -


 With contributions from (in alphabetic order):
[Max-Planck-Institut fuer Kohlenforschung]                               
  Daniel Aravena         : Magnetic Suceptibility                        
  Michael Atanasov       : Ab Initio Ligand Field Theory (pilot matlab implementation)
  Alexander A. Auer      : GIAO ZORA, VPT2 properties, NMR spectrum      
  Ute Becker             : All parallelization in ORCA, NUMFREQ, NUMCALC 
  Giovanni Bistoni       : ED, misc. LED, open-shell LED, HFLD           
  Dmytro Bykov           : pre 5.0 version of the SCF Hessian            
  Marcos Casanova-Páez   : Triplet and SCS-CIS(D). UHF-(DLPNO)-IP/EA/STEOM-CCSD. UHF-CVS-IP/STEOM-CCSD   
  Vijay G. Chilkuri      : MRCI spin determinant printing, contributions to CSF-ICE 
  Pauline Colinet        : FMM embedding                                 
  Dipayan Datta          : RHF DLPNO-CCSD density                        
  Achintya Kumar Dutta   : EOM-CC, STEOM-CC                              
  Nicolas Foglia         : Exact transition moments, OPA infrastructure, MCD improvements    
  Dmitry Ganyushin       : Spin-Orbit,Spin-Spin,Magnetic field MRCI      
  Miquel Garcia-Rates    : C-PCM and meta-GGA Hessian, CCSD/C-PCM, Gaussian charge scheme 
  Tiago L. C. Gouveia    : GS-ROHF, GS-ROCIS                             
  Yang Guo               : DLPNO-NEVPT2, F12-NEVPT2, CIM, IAO-localization        
  Andreas Hansen         : Spin unrestricted coupled pair/coupled cluster methods 
  Ingolf Harden          : AUTO-CI MPn and infrastructure                
  Benjamin Helmich-Paris : MC-RPA, TRAH-(SCF,CASSCF), AVAS, COSX integrals, SCF dyn. polar., MC-PDFT, srDFT 
  Lee Huntington         : MR-EOM, pCC                                   
  Robert Izsak           : Overlap fitted RIJCOSX, COSX-SCS-MP3, EOM     
  Riya Kayal             : Wick's Theorem for AUTO-CI, AUTO-CI UHF-CCSDT 
  Emily Kempfer          : AUTO-CI RHF CISDT and CCSDT, approximate NEVPT4
  Christian Kollmar      : KDIIS, OOCD, Brueckner-CCSD(T), CCSD density, CASPT2, CASPT2-K, improved NEVPT2 
  Axel Koslowski         : Symmetry handling                             
  Simone Kossmann        : meta-GGA functionals, TD-DFT gradient, OOMP2, (MP2 Hessian; deprecated post 5.0) 
  Lucas Lang             : DCDCAS, Hyperfine gauge corrections, ICE-SOC+SSC
  Marvin Lechner         : AUTO-CI (C++ implementation), FIC-MRCC        
  Spencer Leger          : CASSCF response                               
  Dagmar Lenk            : GEPOL surface, SMD, ORCA-2-JSON               
  Dimitrios Liakos       : Extrapolation schemes; Compound Job, Property file
  Dimitrios Manganas     : Further ROCIS development; embedding schemes. LFT, Crystal Embedding 
  Dimitrios Pantazis     : SARC Basis sets                               
  Anastasios Papadopoulos: AUTO-CI, single reference methods and gradients 
  Taras Petrenko         : pre 6.0 DFT Hessian and TD-DFT gradient,  ECA, NRVS 
  Petra Pikulova         : Analytic Raman intensities                    
  Peter Pinski           : DLPNO-MP2, DLPNO-MP2 Gradient                 
  Shashank Vittal Rao    : ES-AILFT, MagRelax                            
  Christoph Reimann      : Effective Core Potentials                     
  Marius Retegan         : Local ZFS, SOC                                
  Christoph Riplinger    : Optimizer, TS searches, QM/MM, DLPNO-CCSD(T), (RO)-DLPNO pert. Triples 
  Michael Roemelt        : Original ROCIS implementation, recursive CI coupling coefficients
  Masaaki Saitow         : Open-shell DLPNO-CCSD energy and density      
  Barbara Sandhoefer     : DKH picture change effects                    
  Yorick L. A. Schmerwitz: GMF and freeze-and-release deltaSCF, NEB S-IDPP initial path                    
  Kantharuban Sivalingam : CASSCF convergence/infrastructure, NEVPT2, NEVPT3, NEVPT4(SD), FIC-MRCI and CEPA variants
  Bernardo de Souza      : ESD, SOC TD-DFT                               
  Georgi L. Stoychev     : AutoAux, RI-MP2 NMR, DLPNO-MP2 response, X2C  
  Van Anh Tran           : RI-MP2 g-tensors                              
  Willem Van den Heuvel  : Paramagnetic NMR                              
  Zikuan Wang            : NOTCH, Electric field optimization            
  Frank Wennmohs         : Technical directorship and infrastructure     
  Hang Xu                : AUTO-CI-Response properties                   
                                                                         
[FACCTs GmbH]                                                            
  Markus Bursch, Nicolas Foglia, Miquel Garcia-Rates, Ingolf Harden, Hagen Neugebauer, Anastasios Papadopoulos, 
  Christoph Riplinger, Bernardo de Souza, Georgi L. Stoychev                                                    
                                                                 
  APM, various basis sets, CI-OPT, improved COSX, DLPNO-Multilevel,           
  DOCKER, DRACO, updates on ESD, Fragmentator, GOAT, IRC, LR-CPCM, L-BFGS, MBIS, meta-GGA TD-DFT gradient, ML-optimized integration grids, 
  MM, NACMEs, nearIR, NEB, NEB-TS, NL-DFT gradient (VV10), 2- and 3-layer-ONIOM, interface openCOSMO-RS, QMMM,   
  Crystal-QMMM, RESP, rigid body optimization, SF, symmetry and pop. for TD-DFT, various functionals, SOLVATOR                                   
                                                                         
[Other institutions]                                                     
  V. Asgeirsson          : NEB                                           
  Christoph Bannwarth    : sTDA-DFT, sTD-DFT, PBEh-3c, B97-3c, D3        
  Giovanni Bistoni       : ETS/NOCV, ADLD/ADEX, COVALED                  
  Martin Brehm           : Molecular dynamics                            
  Ronald Cardenas        : ETS/NOCV                                      
  Martina Colucci        : COVALED                                       
  Sebastian Ehlert       : rSCAN, r2SCAN, r2SCAN-3c, D4, dhf basis sets  
  Marvin Friede          : D4 for Fr, Ra, Ac-Lr                          
  Lars Goerigk           : TD-DFT with DH, B97 family of functionals     
  Stefan Grimme          : VdW corrections, initial TS optimization, DFT functionals, gCP, sTDA/sTD-DF 
  Waldemar Hujo          : DFT-NL                                        
  H. Jonsson             : NEB                                           
  Holger Kruse           : gCP                                           
  Marcel Mueller         : wB97X-3c, vDZP basis set                      
  Hagen Neugebauer       : wr2SCAN, Native XTB                           
  Gianluca Regni         : ADLD/ADEX                                     
  Tobias Risthaus        : pre 6.0 range-separated hybrid DFT and stability analysis
  Lukas Wittmann         : regularized MP2, r2SCAN double-hybrids, wr2SCAN        
                                                                         
We gratefully acknowledge several colleagues who have allowed us to      
interface, adapt or use parts of their codes:                            
  Ed Valeev, F. Pavosevic, A. Kumar             : LibInt (2-el integral package), F12 methods 
  Garnet Chan, S. Sharma, J. Yang, R. Olivares  : DMRG                   
  Ulf Ekstrom                                   : XCFun DFT Library      
  Mihaly Kallay                                 : mrcc  (arbitrary order and MRCC methods)
  Frank Weinhold                                : gennbo (NPA and NBO analysis)           
  Simon Mueller                                 : openCOSMO-RS                            
  Christopher J. Cramer and Donald G. Truhlar   : smd solvation model                     
  S Lehtola, MJT Oliveira, MAL Marques          : LibXC Library                           
  Liviu Ungur et al                             : ANISO software                          


 Your calculation uses the libint2 library for the computation of 2-el integrals
 For citations please refer to: http://libint.valeyev.net

 Your ORCA version has been built with support for libXC version: 7.0.0
 For citations please refer to: https://libxc.gitlab.io

 This ORCA versions uses:
   CBLAS   interface :  Fast vector & matrix operations
   LAPACKE interface :  Fast linear algebra routines
   Shared memory     :  Shared parallel matrices


  ***********************************
  * Starting time: Sun May 31 22:11:46 2026
  * Host name:     JUST
  * Process ID:    32584
  * Working dir.:  C:\Users\alexv\OneDrive\projects\labs\digital-modeling\10 Лаба
  ***********************************

NOTE: MaxCore=4000 MB was set to SCF,MP2,MDCI,CIPSI,MRCI,RASCI and CIS
      => If you want to overwrite this, your respective input block should be placed after the MaxCore statement
Your calculation utilizes the atom-pairwise dispersion correction
with the Becke-Johnson damping scheme (D3BJ)


Your calculation utilizes the SMD solvation module
Please cite in your paper:
Marenich, A. V.; Cramer, C. J.; Truhlar, D. G. J. Phys. Chem. B 2009, 113, 6378 

================================================================================

----- Orbital basis set information -----
Your calculation utilizes the basis: def2-TZVP
   F. Weigend and R. Ahlrichs, Phys. Chem. Chem. Phys. 7, 3297 (2005).

----- AuxJ basis set information -----
Your calculation utilizes the auxiliary basis: def2/J
   H-Rn: F. Weigend, Phys. Chem. Chem. Phys. 8, 1057 (2006).
   Fr-Lr: K. Eichkorn, F. Weigend, O. Treutler, R. Ahlrichs; Theor. Chem. Acc. 97, 119 (1997).

================================================================================
                                        WARNINGS
                       Please study these warnings very carefully!
================================================================================


WARNING: Geometry Optimization
  ===> : Switching off AutoStart
         For restart on a previous wavefunction, please use MOREAD

================================================================================
                                       INPUT FILE
================================================================================
NAME = 2H_triazole_freq.inp
|  1> ! BLYP def2-TZVP def2/J D3BJ Opt Freq CPCM(Water) PAL6
|  2> %maxcore 4000
|  3> %cpcm
|  4>   SMD true
|  5>   SMDsolvent "water"
|  6>   end
|  7> %geom
|  8>   MaxIter 200
|  9>   Calc_Hess true
| 10>   end
| 11> %freq
| 12>   Temp 298.15
| 13>   end
| 14> * xyz 0 1
| 15>   C    4.5317    0.9175    0.0823
| 16>   C    3.7258   -0.0101    0.7667
| 17>   N    2.5283   -0.0592    0.1754
| 18>   N    3.8278    1.4365   -0.9283
| 19>   N    2.6561    0.8176   -0.8164
| 20>   H    5.5510    1.2252    0.2639
| 21>   H    3.9443   -0.6239    1.6283
| 22>   H    3.8278    2.3000   -1.4000
| 23> **                         ****END OF INPUT****
================================================================================

                       *****************************
                       * Geometry Optimization Run *
                       *****************************

Geometry optimization settings:
Update method            Update   .... BFGS
Choice of coordinates    CoordSys .... (2022) Redundant Internals
Initial Hessian          InHess   .... Almloef's Model
Max. no of cycles        MaxIter  .... 200

Convergence Tolerances:
Energy Change            TolE     ....  5.0000e-06 Eh
Max. Gradient            TolMAXG  ....  3.0000e-04 Eh/bohr
RMS Gradient             TolRMSG  ....  1.0000e-04 Eh/bohr
Max. Displacement        TolMAXD  ....  4.0000e-03 bohr
RMS Displacement         TolRMSD  ....  2.0000e-03 bohr
Strict Convergence                .... False

------------------------------------------------------------------------------
                        ORCA OPTIMIZATION COORDINATE SETUP
------------------------------------------------------------------------------

The optimization will be done in redundant internal coordinates (2022)
Making redundant internal coordinates   ...  (2022 redundants) done
Evaluating the initial hessian          ...  (Is done on the fly) done
Evaluating the coordinates              ...  done
Calculating the B-matrix                .... done
Calculating the G-matrix                .... done
The number of degrees of freedom        ....   32

    -----------------------------------------------------------------
                    Redundant Internal Coordinates


    -----------------------------------------------------------------
         Definition                    Initial Value    d2E/dq (diagonal element)
    -----------------------------------------------------------------
      1. B(C   1,C   0)                  1.4065         0.000000   
      2. B(N   2,C   1)                  1.3364         0.000000   
      3. B(N   3,C   0)                  1.3365         0.000000   
      4. B(N   4,N   3)                  1.3298         0.000000   
      5. B(N   4,N   2)                  1.3300         0.000000   
      6. B(H   5,C   0)                  1.0801         0.000000   
      7. B(H   6,C   1)                  1.0802         0.000000   
      8. B(H   7,N   3)                  0.9839         0.000000   
      9. A(C   1,C   0,H   5)          130.2993         0.000000   
     10. A(C   1,C   0,N   3)          108.8006         0.000000   
     11. A(N   3,C   0,H   5)          120.9001         0.000000   
     12. A(C   0,C   1,H   6)          130.3127         0.000000   
     13. A(C   0,C   1,N   2)          108.8049         0.000000   
     14. A(N   2,C   1,H   6)          120.8824         0.000000   
     15. A(C   1,N   2,N   4)          102.6870         0.000000   
     16. A(C   0,N   3,H   7)          134.6933         0.000000   
     17. A(C   0,N   3,N   4)          102.6913         0.000000   
     18. A(N   4,N   3,H   7)          116.6649         0.000000   
     19. A(N   2,N   4,N   3)          117.0162         0.000000   
     20. D(H   6,C   1,C   0,N   3)   -179.9951         0.000000   
     21. D(H   6,C   1,C   0,H   5)      0.0088         0.000000   
     22. D(N   2,C   1,C   0,N   3)     -0.0045         0.000000   
     23. D(N   2,C   1,C   0,H   5)    179.9994         0.000000   
     24. D(N   4,N   2,C   1,H   6)   -179.9979         0.000000   
     25. D(N   4,N   2,C   1,C   0)      0.0104         0.000000   
     26. D(N   4,N   3,C   0,C   1)     -0.0037         0.000000   
     27. D(H   7,N   3,C   0,H   5)    -29.5597         0.000000   
     28. D(H   7,N   3,C   0,C   1)    150.4437         0.000000   
     29. D(N   4,N   3,C   0,H   5)    179.9929         0.000000   
     30. D(N   2,N   4,N   3,H   7)   -156.8877         0.000000   
     31. D(N   2,N   4,N   3,C   0)      0.0114         0.000000   
     32. D(N   3,N   4,N   2,C   1)     -0.0141         0.000000   
    -----------------------------------------------------------------

Number of atoms                         .... 8
Number of degrees of freedom            .... 32


         *************************************************************
         *                GEOMETRY OPTIMIZATION CYCLE   1            *
         *************************************************************
---------------------------------
CARTESIAN COORDINATES (ANGSTROEM)
---------------------------------
  C      4.531700    0.917500    0.082300
  C      3.725800   -0.010100    0.766700
  N      2.528300   -0.059200    0.175400
  N      3.827800    1.436500   -0.928300
  N      2.656100    0.817600   -0.816400
  H      5.551000    1.225200    0.263900
  H      3.944300   -0.623900    1.628300
  H      3.827800    2.300000   -1.400000

----------------------------
CARTESIAN COORDINATES (A.U.)
----------------------------
  NO LB      ZA    FRAG     MASS         X           Y           Z
   0 C     6.0000    0    12.011    8.563672    1.733824    0.155524
   1 C     6.0000    0    12.011    7.040742   -0.019086    1.448853
   2 N     7.0000    0    14.007    4.777795   -0.111872    0.331458
   3 N     7.0000    0    14.007    7.233494    2.714592   -1.754233
   4 N     7.0000    0    14.007    5.019302    1.545040   -1.542772
   5 H     1.0000    0     1.008   10.489870    2.315292    0.498699
   6 H     1.0000    0     1.008    7.453647   -1.179000    3.077041
   7 H     1.0000    0     1.008    7.233494    4.346370   -2.645617

--------------------------------
INTERNAL COORDINATES (ANGSTROEM)
--------------------------------
 C      0   0   0     0.000000000000     0.00000000     0.00000000
 C      1   0   0     1.406527614375     0.00000000     0.00000000
 N      2   1   0     1.336432845301   108.80490364     0.00000000
 N      1   2   3     1.336468693984   108.80055965     0.00000000
 N      4   1   2     1.329826947388   102.69133760     0.00000000
 H      1   2   3     1.080106633625   130.29932955   179.99935402
 H      2   1   3     1.080207040340   130.31268506   180.00940656
 H      4   1   2     0.983937569158   134.69333413   150.44368096

---------------------------
INTERNAL COORDINATES (A.U.)
---------------------------
 C      0   0   0     0.000000000000     0.00000000     0.00000000
 C      1   0   0     2.657951990967     0.00000000     0.00000000
 N      2   1   0     2.525492073997   108.80490364     0.00000000
 N      1   2   3     2.525559818190   108.80055965     0.00000000
 N      4   1   2     2.513008736072   102.69133760     0.00000000
 H      1   2   3     2.041105732982   130.29932955   179.99935402
 H      2   1   3     2.041295474176   130.31268506   180.00940656
 H      4   1   2     1.859372538584   134.69333413   150.44368096

---------------------
BASIS SET INFORMATION
---------------------
There are 3 groups of distinct atoms

 Group   1 Type C   : 11s6p2d1f contracted to 5s3p2d1f pattern {62111/411/11/1}
 Group   2 Type N   : 11s6p2d1f contracted to 5s3p2d1f pattern {62111/411/11/1}
 Group   3 Type H   : 5s1p contracted to 3s1p pattern {311/1}

Atom   0C    basis set group =>   1
Atom   1C    basis set group =>   1
Atom   2N    basis set group =>   2
Atom   3N    basis set group =>   2
Atom   4N    basis set group =>   2
Atom   5H    basis set group =>   3
Atom   6H    basis set group =>   3
Atom   7H    basis set group =>   3
---------------------------------
AUXILIARY/J BASIS SET INFORMATION
---------------------------------
There are 3 groups of distinct atoms

 Group   1 Type C   : 12s5p4d2f1g contracted to 6s4p3d1f1g pattern {711111/2111/211/2/1}
 Group   2 Type N   : 12s5p4d2f1g contracted to 6s4p3d1f1g pattern {711111/2111/211/2/1}
 Group   3 Type H   : 5s2p1d contracted to 3s1p1d pattern {311/2/1}

Atom   0C    basis set group =>   1
Atom   1C    basis set group =>   1
Atom   2N    basis set group =>   2
Atom   3N    basis set group =>   2
Atom   4N    basis set group =>   2
Atom   5H    basis set group =>   3
Atom   6H    basis set group =>   3
Atom   7H    basis set group =>   3
Текущая кодовая страница: 1251


           ************************************************************
           *        Program running with 6 parallel MPI-processes     *
           *              working on a common directory               *
           ************************************************************
------------------------------------------------------------------------------
                             ORCA STARTUP CALCULATIONS
                           -- RI-GTO INTEGRALS CHOSEN --
------------------------------------------------------------------------------
------------------------------------------------------------------------------
                   ___                                                        
                  /   \      - P O W E R E D   B Y -                         
                 /     \                                                     
                 |  |  |   _    _      __       _____    __    __             
                 |  |  |  | |  | |    /  \     |  _  \  |  |  /  |          
                  \  \/   | |  | |   /    \    | | | |  |  | /  /          
                 / \  \   | |__| |  /  /\  \   | |_| |  |  |/  /          
                |  |  |   |  __  | /  /__\  \  |    /   |      \           
                |  |  |   | |  | | |   __   |  |    \   |  |\   \          
                \     /   | |  | | |  |  |  |  | |\  \  |  | \   \       
                 \___/    |_|  |_| |__|  |__|  |_| \__\ |__|  \__/        
                                                                              
                      - O R C A' S   B I G   F R I E N D -                    
                                      &                                       
                       - I N T E G R A L  F E E D E R -                       
                                                                              
 v1 FN, 2020, v2 2021, v3 2022-2024                                           
------------------------------------------------------------------------------


----------------------
SHARK INTEGRAL PACKAGE
----------------------

Number of atoms                             ...      8
Number of basis functions                   ...    173
Number of shells                            ...     67
Maximum angular momentum                    ...      3
Integral batch strategy                     ... SHARK/LIBINT Hybrid
RI-J (if used) integral strategy            ... SPLIT-RIJ (Revised 2003 algorithm where possible)
Printlevel                                  ...      1
Contraction scheme used                     ... SEGMENTED contraction
Prescreening option                         ... SCHWARTZ
   Thresh                                   ... 2.500e-11
   Tcut                                     ... 2.500e-12
   Tpresel                                  ... 2.500e-12 
Coulomb Range Separation                    ... NOT USED
Exchange Range Separation                   ... NOT USED
Multipole approximations                    ... NOT USED
Finite Nucleus Model                        ... NOT USED
CABS basis                                  ... NOT available
Auxiliary Coulomb fitting basis             ... AVAILABLE
   # of basis functions in Aux-J            ...    278
   # of shells in Aux-J                     ...     90
   Maximum angular momentum in Aux-J        ...      4
Auxiliary J/K fitting basis                 ... NOT available
Auxiliary Correlation fitting basis         ... NOT available
Auxiliary 'external' fitting basis          ... NOT available

Checking pre-screening integrals            ... done (  0.0 sec) Dimension = 67
   => SHARK Basis and OBASIS are compatible. Storing Pre-screening
Shell pair information
Shell pair cut-off parameter TPreSel        ...   2.5e-12
Total number of shell pairs                 ...      2278
Shell pairs after pre-screening             ...      2238
Total number of primitive shell pairs       ...      7140
Primitive shell pairs kept                  ...      5731
          la=0 lb=0:    559 shell pairs
          la=1 lb=0:    608 shell pairs
          la=1 lb=1:    171 shell pairs
          la=2 lb=0:    340 shell pairs
          la=2 lb=1:    180 shell pairs
          la=2 lb=2:     55 shell pairs
          la=3 lb=0:    170 shell pairs
          la=3 lb=1:     90 shell pairs
          la=3 lb=2:     50 shell pairs
          la=3 lb=3:     15 shell pairs

Checking whether 4 symmetric matrices of dimension 173 fit in memory
:Max Core in MB      =   4000.00
 MB in use           =      5.60
 MB left             =   3994.40
 MB needed           =      0.46
 Data fit in memory  = YES
Calculating RI/J V-Matrix + Cholesky decomp.... done (  0.0 sec)
Calculating Nuclear repulsion               ... done (  0.0 sec) ENN=    165.167449926018 Eh

Diagonalization of the overlap matrix:
Smallest eigenvalue                        ... 1.616e-04
Time for diagonalization                   ...    0.003 sec
Threshold for overlap eigenvalues          ... 1.000e-07
Number of eigenvalues below threshold      ... 0
Time for construction of square roots      ...    0.005 sec
Total time needed                          ...    0.011 sec

-------------------
DFT GRID GENERATION
-------------------

General Integration Accuracy     IntAcc      ... 4.388
Radial Grid Type                 RadialGrid  ... OptM3 with GC (2021)
Angular Grid (max. ang.)         AngularGrid ... 4 (Lebedev-302)
Angular grid pruning method      GridPruning ... 4 (adaptive)
Weight generation scheme         WeightScheme... mBecke (2022)
Basis function cutoff            BFCut       ... 1.0000e-11
Integration weight cutoff        WCut        ... 1.0000e-14
Partially contracted basis set               ... off
Rotationally invariant grid construction     ... off
Angular grids for H and He will be reduced by one unit

Total number of grid points                  ...    40162
Total number of batches                      ...      632
Average number of points per batch           ...       63
Average number of grid points per atom       ...     5020
Grids setup in   0.2 sec
Initializing property integral containers    ... done (  0.0 sec)

SHARK setup successfully completed in   0.4 seconds

Maximum memory used throughout the entire STARTUP-calculation: 14.1 MB
Текущая кодовая страница: 1251


           ************************************************************
           *        Program running with 6 parallel MPI-processes     *
           *              working on a common directory               *
           ************************************************************
-------------------------------------------------------------------------------
                                 ORCA GUESS
                   Start orbitals & Density for SCF / CASSCF
-------------------------------------------------------------------------------

------------
SCF SETTINGS
------------
Hamiltonian:
 Density Functional     Method          .... DFT(GTOs)
 Exchange Functional    Exchange        .... B88
   X-Alpha parameter    XAlpha          ....  0.666667
   Becke's b parameter  XBeta           ....  0.004200
 Correlation Functional Correlation     .... LYP
 Gradients option       PostSCFGGA      .... off
   NL short-range parameter             ....  4.000000
 RI-approximation to the Coulomb term is turned on
   Number of AuxJ basis functions       .... 278


General Settings:
 Integral files         IntName         .... 2H_triazole_freq
 Hartree-Fock type      HFTyp           .... RHF
 Total Charge           Charge          ....    0
 Multiplicity           Mult            ....    1
 Number of Electrons    NEL             ....   36
 Basis Dimension        Dim             ....  173
 Nuclear Repulsion      ENuc            ....    165.1674499260 Eh

Convergence Acceleration:
 AO-DIIS                CNVDIIS         .... on
   Start iteration      DIISMaxIt       ....    12
   Startup error        DIISStart       ....  0.200000
   # of expansion vecs  DIISMaxEq       ....     5
   Bias factor          DIISBfac        ....   1.050
   Max. coefficient     DIISMaxC        ....  10.000
 MO-DIIS                CNVKDIIS        .... off
 Trust-Rad. Augm. Hess. CNVTRAH         .... auto
   Auto Start mean grad. ratio tolernc. ....  1.125000
   Auto Start start iteration           ....    50
   Auto Start num. interpolation iter.  ....    10
   Max. Number of Micro iterations      ....    24
   Max. Number of Macro iterations      .... Maxiter - #DIIS iter
   Number of Davidson start vectors     ....     2
   Converg. threshold    (grad. norm)   ....   1.000e-05
   Grad. Scal. Fac. for Micro threshold ....   0.100
   Minimum threshold for Micro iter.    ....   1.000e-02
   NR start threshold (gradient norm)   ....   1.000e-04
   Initial trust radius                 ....   0.400
   Minimum AH scaling param. (alpha)    ....   1.000
   Maximum AH scaling param. (alpha)    .... 1000.000
   Quad. conv. algorithm                .... NR
   White noise on init. David. guess    .... on
   Maximum white noise                  ....   0.010
   Pseudo random numbers                .... off
   Inactive MOs                         .... canonical
   Orbital update algorithm             .... Taylor
   Preconditioner                       .... Diag
   Full preconditioner red. dimension   ....   250
 SOSCF                 CNVSOSCF           .... on
   Start iteration     SOSCFMaxIt         ....   150
   Startup grad/error  SOSCFStart         ....  0.003300
   Hessian update      SOSCFHessUp        .... L-BFGS
   Autom. constraints  SOSCFAutoConstrain .... off
 Level Shifting         CNVShift        .... on
   Level shift para.    LevelShift      ....    0.2500
   Turn off err/grad.   ShiftErr        ....    0.0010
 Zerner damping         CNVZerner       .... off
 Static damping         CNVDamp         .... on
   Fraction old density DampFac         ....    0.7000
   Max. Damping (<1)    DampMax         ....    0.9800
   Min. Damping (>=0)   DampMin         ....    0.0000
   Turn off err/grad.   DampErr         ....    0.1000

SCF Procedure:
 Maximum # iterations   MaxIter         ....   125
 SCF integral mode      SCFMode         .... Direct
   Integral package                     .... SHARK and LIBINT hybrid scheme
 Reset frequency        DirectResetFreq ....    20
 Integral Threshold     Thresh          ....  2.500e-11 Eh
 Primitive CutOff       TCut            ....  2.500e-12 Eh

Convergence Tolerance:
 Convergence Check Mode ConvCheckMode   .... Total+1el-Energy
 Convergence forced     ConvForced      .... 0
 Energy Change          TolE            ....  1.000e-08 Eh
 1-El. energy change                    ....  1.000e-05 Eh
 Orbital Gradient       TolG            ....  1.000e-05
 Orbital Rotation angle TolX            ....  1.000e-05
 DIIS Error             TolErr          ....  5.000e-07

------------------------------
INITIAL GUESS: MODEL POTENTIAL
------------------------------
Loading Hartree-Fock densities                     ... done
Calculating cut-offs                               ... done
Initializing the effective Hamiltonian             ... done
Setting up the integral package (SHARK)            ... done
Starting the Coulomb interaction                   ... done (   0.0 sec)
Making the grid                                    ... done (   0.1 sec)
Mapping shells                                     ... done
Starting the XC term evaluation                    ... done (   0.0 sec)
  promolecular density results
     # of electrons  =     35.999439581
     EX              =    -30.893749704
     EC              =     -1.240186183
     EX+EC           =    -32.133935887
Transforming the Hamiltonian                       ... done (   0.0 sec)
Diagonalizing the Hamiltonian                      ... done (   0.0 sec)
Back transforming the eigenvectors                 ... done (   0.0 sec)
Now organizing SCF variables                       ... done
                      ------------------
                      INITIAL GUESS DONE (   0.2 sec)
                      ------------------
             **** ENERGY FILE WAS UPDATED (2H_triazole_freq.en.tmp) ****
Finished Guess after   0.3 sec
Maximum memory used throughout the entire GUESS-calculation: 10.1 MB
Текущая кодовая страница: 1251


           ************************************************************
           *        Program running with 6 parallel MPI-processes     *
           *              working on a common directory               *
           ************************************************************

-------------------------------------------------------------------------------------------
                                      ORCA LEAN-SCF
                              memory conserving SCF solver
-------------------------------------------------------------------------------------------

--------------------
CPCM SOLVATION MODEL
--------------------
CPCM parameters:
  Epsilon                                         ...      78.3550
  Refrac                                          ...       1.3328
  Rsolv                                           ...       1.3000
  Surface type                                    ... GAUSSIAN VDW
  Discretization scheme                           ... Constant charge density
    Threshold for H atoms                         ...       5.0000 (charges/Ang^2)
    Threshold for non-H atoms                     ...       5.0000 (charges/Ang^2)
  Epsilon function type                           ...         CPCM
Solvent:                                          ... WATER
SMD-CDS solvent descriptors:
  Soln                                            ...       1.3328
  Soln25                                          ...       1.3323
  Sola                                            ...       0.0000
  Solb                                            ...       0.0000
  Solg                                            ...       0.0000
  Solc                                            ...       0.0000
  Solh                                            ...       0.0000
Radii:
  Scheme                                          ... Element-dependent radii
  Radius for C  used is    3.4960 Bohr (=   1.8500 Ang.)
  Radius for N  used is    3.5716 Bohr (=   1.8900 Ang.)
  Radius for H  used is    2.2677 Bohr (=   1.2000 Ang.)
Calculating surface                               ...        done! (  0.0s)
Cavity surface points                             ...          711
Cavity Volume                                     ...     517.3777
Cavity Surface-area                               ...     337.0932
Calculating surface distance matrix               ...        done! (  0.0s)
Performing Cholesky decomposition & store         ...        done! (  0.0s)
Overall time for CPCM initialization              ...                 0.0s

----------------------------------------D-I-I-S--------------------------------------------
Iteration    Energy (Eh)           Delta-E    RMSDP     MaxDP     DIISErr   Damp  Time(sec)
-------------------------------------------------------------------------------------------
               ***  Starting incremental Fock matrix formation  ***
    1    -242.1712320543669250     0.00e+00  4.08e-03  3.37e-02  1.19e-01  0.700   0.4
    2    -242.2079444350044071    -3.67e-02  3.50e-03  2.91e-02  5.15e-02  0.700   0.3
                               ***Turning on AO-DIIS***
    3    -242.2224355789657295    -1.45e-02  1.59e-03  1.32e-02  2.42e-02  0.700   0.3
    4    -242.2309201419534190    -8.48e-03  2.34e-03  2.12e-02  1.12e-02  0.000   0.3
    5    -242.2494055328035927    -1.85e-02  6.76e-04  5.55e-03  4.38e-03  0.000   0.3
                              *** Initializing SOSCF ***
---------------------------------------S-O-S-C-F--------------------------------------
Iteration    Energy (Eh)           Delta-E    RMSDP     MaxDP     MaxGrad    Time(sec)
--------------------------------------------------------------------------------------
    6    -242.2495391539813738    -1.34e-04  2.57e-04  2.09e-03  1.61e-03     0.5
               *** Restarting incremental Fock matrix formation ***
    7    -242.2495513952469253    -1.22e-05  1.81e-04  1.34e-03  2.31e-04     0.3
    8    -242.2495444222366530     6.97e-06  6.31e-05  6.32e-04  7.64e-04     0.4
    9    -242.2495530912321726    -8.67e-06  2.25e-05  1.89e-04  3.13e-05     0.3
   10    -242.2495530508081458     4.04e-08  6.71e-06  6.67e-05  6.26e-05     0.3
   11    -242.2495531319226814    -8.11e-08  4.67e-06  4.05e-05  9.16e-06     0.3
   12    -242.2495531301454150     1.78e-09  1.36e-06  1.04e-05  6.58e-06     0.3
                 **** Energy Check signals convergence ****

               *****************************************************
               *                     SUCCESS                       *
               *           SCF CONVERGED AFTER  12 CYCLES          *
               *****************************************************


SMD CDS free energy correction energy :                 1.50404     Kcal/mol
Total Energy after SMD CDS correction =              -242.247156301 Eh
             **** ENERGY FILE WAS UPDATED (2H_triazole_freq.en.tmp) ****

----------------
TOTAL SCF ENERGY
----------------

Total Energy       :       -242.24715630087883 Eh           -6591.88025 eV

Components:
Nuclear Repulsion  :        165.16744992601761 Eh            4494.43481 eV
Electronic Energy  :       -407.39262951534960 Eh          -11085.71704 eV
One Electron Energy:       -654.26787556797194 Eh          -17803.53401 eV
Two Electron Energy:        246.87524605262234 Eh            6717.81697 eV
CPCM Dielectric    :         -0.02437354606799 Eh              -0.66324 eV
SMD CDS (Gcds)     :          0.00239683452112 Eh               0.06522 eV

Virial components:
Potential Energy   :       -483.85429092903519 Eh          -13166.34462 eV
Kinetic Energy     :        241.60713462815636 Eh            6574.46437 eV
Virial Ratio       :          2.00264901810001

DFT components:
N(Alpha)           :       18.000002371052 electrons
N(Beta)            :       18.000002371052 electrons
N(Total)           :       36.000004742104 electrons
E(X)               :      -31.404127687375 Eh       
E(C)               :       -1.247960161254 Eh       
E(XC)              :      -32.652087848630 Eh       

CPCM Solvation Model Properties:
Surface-charge          :         -0.02487254110945
Corrected charge        :         -0.00000000000000
Outlying charge corr.   :          0.00005972292064 Eh               0.00163 eV
Free-energy (cav+disp)  :          0.00239683452112 Eh               0.06522 eV

---------------
SCF CONVERGENCE
---------------

  Last Energy change         ...   -1.7773e-09  Tolerance :   1.0000e-08
  Last MAX-Density change    ...    1.0394e-05  Tolerance :   1.0000e-07
  Last RMS-Density change    ...    1.3648e-06  Tolerance :   5.0000e-09
  Last DIIS Error            ...    1.6124e-03  Tolerance :   5.0000e-07
  Last Orbital Gradient      ...    6.5830e-06  Tolerance :   1.0000e-05
  Last Orbital Rotation      ...    9.3222e-06  Tolerance :   1.0000e-05


----------------
ORBITAL ENERGIES
----------------

  NO   OCC          E(Eh)            E(eV) 
   0   2.0000     -14.093457      -383.5025 
   1   2.0000     -14.047472      -382.2512 
   2   2.0000     -14.034940      -381.9101 
   3   2.0000      -9.947342      -270.6809 
   4   2.0000      -9.930481      -270.2221 
   5   2.0000      -1.005353       -27.3570 
   6   2.0000      -0.836765       -22.7695 
   7   2.0000      -0.707006       -19.2386 
   8   2.0000      -0.597461       -16.2577 
   9   2.0000      -0.560498       -15.2519 
  10   2.0000      -0.496604       -13.5133 
  11   2.0000      -0.426074       -11.5941 
  12   2.0000      -0.402185       -10.9440 
  13   2.0000      -0.393132       -10.6977 
  14   2.0000      -0.286268        -7.7898 
  15   2.0000      -0.279145        -7.5959 
  16   2.0000      -0.228269        -6.2115 
  17   2.0000      -0.222649        -6.0586 
  18   0.0000      -0.049748        -1.3537 
  19   0.0000       0.004354         0.1185 
  20   0.0000       0.039334         1.0703 
  21   0.0000       0.077888         2.1194 
  22   0.0000       0.084911         2.3106 
  23   0.0000       0.113854         3.0981 
  24   0.0000       0.141360         3.8466 
  25   0.0000       0.149916         4.0794 
  26   0.0000       0.164839         4.4855 
  27   0.0000       0.185801         5.0559 
  28   0.0000       0.211046         5.7428 
*Only the first 10 virtual orbitals were printed.

                    ********************************
                    * MULLIKEN POPULATION ANALYSIS *
                    ********************************

-----------------------
MULLIKEN ATOMIC CHARGES
-----------------------
   0 C :   -0.085592
   1 C :   -0.145821
   2 N :   -0.184146
   3 N :   -0.026474
   4 N :   -0.180169
   5 H :    0.164666
   6 H :    0.157032
   7 H :    0.300504
Sum of atomic charges:   -0.0000000

--------------------------------
MULLIKEN REDUCED ORBITAL CHARGES
--------------------------------
  0 C s       :     3.233909  s :     3.233909
      pz      :     0.855099  p :     2.750777
      px      :     0.947386
      py      :     0.948292
      dz2     :     0.029702  d :     0.089820
      dxz     :     0.015287
      dyz     :     0.011671
      dx2y2   :     0.017128
      dxy     :     0.016032
      f0      :     0.001478  f :     0.011086
      f+1     :     0.002086
      f-1     :     0.001449
      f+2     :     0.001803
      f-2     :     0.001541
      f+3     :     0.001209
      f-3     :     0.001520

  1 C s       :     3.247832  s :     3.247832
      pz      :     0.991011  p :     2.797515
      px      :     0.834150
      py      :     0.972354
      dz2     :     0.018013  d :     0.089669
      dxz     :     0.015552
      dyz     :     0.013266
      dx2y2   :     0.021746
      dxy     :     0.021092
      f0      :     0.000580  f :     0.010805
      f+1     :     0.002214
      f-1     :     0.001306
      f+2     :     0.002030
      f-2     :     0.001708
      f+3     :     0.001229
      f-3     :     0.001739

  2 N s       :     3.623334  s :     3.623334
      pz      :     0.984393  p :     3.479655
      px      :     1.345319
      py      :     1.149943
      dz2     :     0.016928  d :     0.075765
      dxz     :     0.015746
      dyz     :     0.013737
      dx2y2   :     0.014177
      dxy     :     0.015176
      f0      :     0.000683  f :     0.005392
      f+1     :     0.000743
      f-1     :     0.000951
      f+2     :     0.000948
      f-2     :     0.000947
      f+3     :     0.000454
      f-3     :     0.000666

  3 N s       :     3.408005  s :     3.408005
      pz      :     1.301378  p :     3.531080
      px      :     1.058120
      py      :     1.171581
      dz2     :     0.013562  d :     0.080908
      dxz     :     0.017267
      dyz     :     0.012006
      dx2y2   :     0.020707
      dxy     :     0.017365
      f0      :     0.001133  f :     0.006483
      f+1     :     0.000678
      f-1     :     0.000681
      f+2     :     0.001029
      f-2     :     0.000959
      f+3     :     0.001133
      f-3     :     0.000870

  4 N s       :     3.654040  s :     3.654040
      pz      :     1.204807  p :     3.428761
      px      :     1.166538
      py      :     1.057416
      dz2     :     0.019791  d :     0.089574
      dxz     :     0.018086
      dyz     :     0.013509
      dx2y2   :     0.019435
      dxy     :     0.018754
      f0      :     0.001185  f :     0.007794
      f+1     :     0.000859
      f-1     :     0.001130
      f+2     :     0.000973
      f-2     :     0.001237
      f+3     :     0.001226
      f-3     :     0.001184

  5 H s       :     0.813211  s :     0.813211
      pz      :     0.004063  p :     0.022123
      px      :     0.013040
      py      :     0.005020

  6 H s       :     0.821186  s :     0.821186
      pz      :     0.010628  p :     0.021782
      px      :     0.003544
      py      :     0.007610

  7 H s       :     0.660781  s :     0.660781
      pz      :     0.012490  p :     0.038715
      px      :     0.006083
      py      :     0.020141



                     *******************************
                     * LOEWDIN POPULATION ANALYSIS *
                     *******************************

----------------------
LOEWDIN ATOMIC CHARGES
----------------------
   0 C :   -0.247531
   1 C :   -0.295676
   2 N :   -0.017538
   3 N :    0.167293
   4 N :   -0.098318
   5 H :    0.145868
   6 H :    0.139937
   7 H :    0.205966

-------------------------------
LOEWDIN REDUCED ORBITAL CHARGES
-------------------------------
  0 C s       :     2.797840  s :     2.797840
      pz      :     0.939387  p :     2.926841
      px      :     1.001919
      py      :     0.985535
      dz2     :     0.123349  d :     0.452936
      dxz     :     0.094388
      dyz     :     0.071879
      dx2y2   :     0.089639
      dxy     :     0.073682
      f0      :     0.010129  f :     0.069913
      f+1     :     0.013595
      f-1     :     0.008102
      f+2     :     0.011910
      f-2     :     0.010030
      f+3     :     0.006931
      f-3     :     0.009217

  1 C s       :     2.810716  s :     2.810716
      pz      :     0.985326  p :     2.962129
      px      :     0.982829
      py      :     0.993974
      dz2     :     0.072734  d :     0.454781
      dxz     :     0.107154
      dyz     :     0.062568
      dx2y2   :     0.106385
      dxy     :     0.105940
      f0      :     0.004084  f :     0.068049
      f+1     :     0.015827
      f-1     :     0.004995
      f+2     :     0.012292
      f-2     :     0.010626
      f+3     :     0.007777
      f-3     :     0.012448

  2 N s       :     3.150200  s :     3.150200
      pz      :     1.065371  p :     3.572887
      px      :     1.359768
      py      :     1.147748
      dz2     :     0.064040  d :     0.263834
      dxz     :     0.054047
      dyz     :     0.060364
      dx2y2   :     0.042894
      dxy     :     0.042488
      f0      :     0.003576  f :     0.030618
      f+1     :     0.004700
      f-1     :     0.004942
      f+2     :     0.005023
      f-2     :     0.004766
      f+3     :     0.003545
      f-3     :     0.004067

  3 N s       :     2.941304  s :     2.941304
      pz      :     1.249553  p :     3.559090
      px      :     1.154424
      py      :     1.155113
      dz2     :     0.046653  d :     0.301949
      dxz     :     0.061221
      dyz     :     0.041475
      dx2y2   :     0.083291
      dxy     :     0.069309
      f0      :     0.005510  f :     0.030364
      f+1     :     0.003855
      f-1     :     0.002862
      f+2     :     0.003599
      f-2     :     0.004299
      f+3     :     0.006128
      f-3     :     0.004110

  4 N s       :     3.160689  s :     3.160689
      pz      :     1.232406  p :     3.571364
      px      :     1.236347
      py      :     1.102611
      dz2     :     0.057027  d :     0.331865
      dxz     :     0.073645
      dyz     :     0.056051
      dx2y2   :     0.067894
      dxy     :     0.077248
      f0      :     0.005499  f :     0.034400
      f+1     :     0.004288
      f-1     :     0.004137
      f+2     :     0.004052
      f-2     :     0.005463
      f+3     :     0.005886
      f-3     :     0.005075

  5 H s       :     0.790813  s :     0.790813
      pz      :     0.011825  p :     0.063319
      px      :     0.036848
      py      :     0.014647

  6 H s       :     0.798379  s :     0.798379
      pz      :     0.029678  p :     0.061684
      px      :     0.010551
      py      :     0.021456

  7 H s       :     0.683114  s :     0.683114
      pz      :     0.034309  p :     0.110921
      px      :     0.018261
      py      :     0.058350



                      *****************************
                      * MAYER POPULATION ANALYSIS *
                      *****************************

  NA   - Mulliken gross atomic population
  ZA   - Total nuclear charge
  QA   - Mulliken gross atomic charge
  VA   - Mayer's total valence
  BVA  - Mayer's bonded valence
  FA   - Mayer's free valence

  ATOM       NA         ZA         QA         VA         BVA        FA
  0 C      6.0856     6.0000    -0.0856     3.9178     3.9178     0.0000
  1 C      6.1458     6.0000    -0.1458     4.0332     4.0332    -0.0000
  2 N      7.1841     7.0000    -0.1841     2.9952     2.9952    -0.0000
  3 N      7.0265     7.0000    -0.0265     3.4728     3.4728    -0.0000
  4 N      7.1802     7.0000    -0.1802     2.8124     2.8124    -0.0000
  5 H      0.8353     1.0000     0.1647     0.9698     0.9698     0.0000
  6 H      0.8430     1.0000     0.1570     0.9821     0.9821     0.0000
  7 H      0.6995     1.0000     0.3005     0.9224     0.9224    -0.0000

  Mayer bond orders larger than 0.100000
B(  0-C ,  1-C ) :   1.5280 B(  0-C ,  3-N ) :   1.2763 B(  0-C ,  4-N ) :   0.1330 
B(  0-C ,  5-H ) :   0.9589 B(  1-C ,  2-N ) :   1.4602 B(  1-C ,  6-H ) :   0.9575 
B(  2-N ,  3-N ) :   0.1013 B(  2-N ,  4-N ) :   1.3996 B(  3-N ,  4-N ) :   1.1880 
B(  3-N ,  7-H ) :   0.8758 

-------
TIMINGS
-------

Total SCF time: 0 days 0 hours 0 min 4 sec 

Total time                  ....       4.456 sec
Sum of individual times     ....       4.145 sec  ( 93.0%)

SCF preparation             ....       0.137 sec  (  3.1%)
Fock matrix formation       ....       3.176 sec  ( 71.3%)
  Startup                   ....       0.028 sec  (  0.9% of F)
  Split-RI-J                ....       0.467 sec  ( 14.7% of F)
  XC integration            ....       1.794 sec  ( 56.5% of F)
    Basis function eval.    ....       0.403 sec  ( 22.5% of XC)
    Density eval.           ....       0.320 sec  ( 17.8% of XC)
    XC-Functional eval.     ....       0.020 sec  (  1.1% of XC)
    XC-Potential eval.      ....       0.577 sec  ( 32.2% of XC)
  CPCM terms                ....       0.736 sec  ( 23.2% of F)
Diagonalization             ....       0.000 sec  (  0.0%)
Density matrix formation    ....       0.202 sec  (  4.5%)
Total Energy calculation    ....       0.132 sec  (  3.0%)
Population analysis         ....       0.032 sec  (  0.7%)
Orbital Transformation      ....       0.031 sec  (  0.7%)
Orbital Orthonormalization  ....       0.000 sec  (  0.0%)
DIIS solution               ....       0.219 sec  (  4.9%)
SOSCF solution              ....       0.216 sec  (  4.8%)
Finished LeanSCF after   4.5 sec

Maximum memory used throughout the entire LEANSCF-calculation: 9.3 MB
Текущая кодовая страница: 1251


           ************************************************************
           *        Program running with 6 parallel MPI-processes     *
           *              working on a common directory               *
           ************************************************************

------------------------------------------------------------------------------
                         ORCA PROPERTY INTEGRAL CALCULATIONS
------------------------------------------------------------------------------

GBWName                                   ... 2H_triazole_freq.gbw
Number of atoms                           ...      8
Number of basis functions                 ...    173
Max core memory                           ...   4000 MB

Dipole integrals                          ... YES
Quadrupole integrals                      ...  NO
Linear momentum integrals                 ...  NO
Angular momentum integrals                ...  NO
Higher moments length integrals           ...  NO
Higher moments velocity integrals         ...  NO
Kinetic energy integrals                  ...  NO
GIAO right hand sides                     ...  NO
GIAO dipole derivative integrals          ...  NO
SOC integrals                             ...  NO
EPR diamagnetic integrals (GIAO)          ...  NO
EPR gauge integrals                       ...  NO
Field gradient integrals                  ...  NO (   0 nuclei)
Spin-dipole/Fermi contact integrals       ...  NO (   0 nuclei)
Contact density integrals                 ...  NO (   0 nuclei)
Nucleus-orbit integrals                   ...  NO (   0 nuclei)
Geometric perturbations                   ...  NO (   8 nuclei)

Choice of electric origin   ... Center of mass
Position of electric origin ... (  6.5350,  1.2194, -0.3088) 
Choice of magnetic origin   ... GIAO
Position of magnetic origin ... (  0.0000,  0.0000,  0.0000) 

Calculating integrals                     ... Electric Dipole (Length)     done (  0.0 sec)

Property integrals calculated in   0.0 sec

Maximum memory used throughout the entire PROPINT-calculation: 10.4 MB


-------------------------------------------------------------------------------
                          DFT DISPERSION CORRECTION                            
                                                                               
                              DFTD3 V3.1  Rev 1                                
                          USING Becke-Johnson damping                          
-------------------------------------------------------------------------------
The BLYP functional is recognized
Active option DFTDOPT                   ...         4   

molecular C6(AA) [au] = 752.206431 


            DFT-D V3
 parameters
 s6 scaling factor         :     1.0000 
 a1 scaling factor         :     0.4298 
 s8 scaling factor         :     2.6996 
 a2 scaling factor         :     4.2359 
 ad hoc parameters k1-k3   :    16.0000     1.3333    -4.0000 

 Edisp/kcal,au: -7.609867573050  -0.012127094611 
 E6   /kcal   :  -3.017039550 
 E8   /kcal   :  -4.592828023 
 % E8         :  60.353586695 

-------------------------   ----------------
Dispersion correction           -0.012127095
-------------------------   ----------------


-------------------------   --------------------
FINAL SINGLE POINT ENERGY      -242.259283395490
-------------------------   --------------------

Текущая кодовая страница: 1251


           ************************************************************
           *        Program running with 6 parallel MPI-processes     *
           *              working on a common directory               *
           ************************************************************
------------------------------------------------------------------------------
                         ORCA SCF GRADIENT CALCULATION
------------------------------------------------------------------------------

Nuc. rep. gradient        (SHARK) ... done (  0.0 sec)
HCore & Overlap gradient  (SHARK) ... done (  0.0 sec)
Split-RIJ-J gradient      (SHARK) ... done (  0.1 sec)
XC gradient                       ... done (  0.5 sec)
CPCM gradient                     ... done (  0.1 sec)
SMD gradient                      ... done (  0.0 sec)
Dispersion correction             ... done (  0.0 sec)

-------------------
DISPERSION GRADIENT
-------------------

   1   C   :   -0.001573915   -0.000222310   -0.000591499
   2   C   :   -0.000707098    0.000619457   -0.001154976
   3   N   :    0.000192195    0.000050199    0.000022871
   4   N   :   -0.000032565   -0.000130656    0.000141639
   5   N   :    0.001852101   -0.000448500    0.001549013
   6   H   :    0.000240592    0.000066519    0.000039902
   7   H   :    0.000014223   -0.000144733    0.000181165
   8   H   :    0.000014468    0.000210024   -0.000188114

Difference to translation invariance:
           :    0.0000000000   -0.0000000000   -0.0000000000

Difference to rotation invariance:
           :   -0.0000000000    0.0000000000   -0.0000000000

Norm of the Dispersion gradient    ...    0.0033765085
RMS gradient                       ...    0.0006892269
MAX gradient                       ...    0.0018521010

------------------
CARTESIAN GRADIENT
------------------

   1   C   :   -0.048472522    0.004031525   -0.038407357
   2   C   :   -0.038543029   -0.006499211   -0.008340134
   3   N   :   -0.017047423   -0.025730886    0.029379154
   4   N   :    0.019031024    0.062623453   -0.053308526
   5   N   :    0.102893194   -0.009027063    0.055765028
   6   H   :   -0.002364851    0.000621051   -0.003816872
   7   H   :   -0.006402820   -0.000527507   -0.001564938
   8   H   :   -0.009093574   -0.025491362    0.020293644

Difference to translation invariance:
           :   -0.0000000000   -0.0000000000    0.0000000000

Difference to rotation invariance:
           :    0.0000613929   -0.0001053625   -0.0000885007

Norm of the Cartesian gradient     ...    0.1713670629
RMS gradient                       ...    0.0349801552
MAX gradient                       ...    0.1028931941

-------
TIMINGS
-------

Total SCF gradient time     ....        0.872 sec

One electron gradient       ....       0.021 sec  (  2.4%)
RI-J Coulomb gradient       ....       0.142 sec  ( 16.3%)
XC gradient                 ....       0.524 sec  ( 60.1%)
CPCM gradient               ....       0.130 sec  ( 14.9%)
   A-Matrix (El+Nuc)        ....       0.003 sec  (  0.3%)
   Potential                ....       0.127 sec  ( 14.6%)
SMD gradient                ....       0.004 sec  (  0.5%)

Maximum memory used throughout the entire SCFGRAD-calculation: 28.9 MB
Текущая кодовая страница: 1251


           ************************************************************
           *        Program running with 6 parallel MPI-processes     *
           *              working on a common directory               *
           ************************************************************

------------------------------------------------------------------------------
                         ORCA PROPERTY INTEGRAL CALCULATIONS
------------------------------------------------------------------------------

GBWName                                   ... 2H_triazole_freq.gbw
Number of atoms                           ...      8
Number of basis functions                 ...    173
Max core memory                           ...   4000 MB

Dipole integrals                          ...  NO
Quadrupole integrals                      ...  NO
Linear momentum integrals                 ...  NO
Angular momentum integrals                ...  NO
Higher moments length integrals           ...  NO
Higher moments velocity integrals         ...  NO
Kinetic energy integrals                  ...  NO
GIAO right hand sides                     ...  NO
GIAO dipole derivative integrals          ...  NO
SOC integrals                             ...  NO
EPR diamagnetic integrals (GIAO)          ...  NO
EPR gauge integrals                       ...  NO
Field gradient integrals                  ...  NO (   0 nuclei)
Spin-dipole/Fermi contact integrals       ...  NO (   0 nuclei)
Contact density integrals                 ...  NO (   0 nuclei)
Nucleus-orbit integrals                   ...  NO (   0 nuclei)
Geometric perturbations                   ... YES (   8 nuclei)

Choice of electric origin   ... Center of mass
Position of electric origin ... (  6.5350,  1.2194, -0.3088) 
Choice of magnetic origin   ... GIAO
Position of magnetic origin ... (  0.0000,  0.0000,  0.0000) 

Calculating integrals                     ... Geometrical perturbation right hand sides

-----------------------
GEOMETRIC PERTURBATIONS (8 nuclei)
-----------------------

MaxCore                            ...   4000 MB
Number of batches                  ...      1

BATCH   0: Atoms    0 -    7 ( 24 perturbations)
   => H(core) and overlap derivative integrals     ... done (     0.0 sec)
   => Making and storing internal U-coefficients   ... done (     0.1 sec)
   => RI-J derivative integrals                    ... done (     0.5 sec)
   => RI-J response operators                      ... done (     0.1 sec)
   => XC derivative integrals                      ... done (     6.0 sec)
   => XC response operators                        ... done (     1.6 sec)
   => CPCM derivative integrals                    ... done (     0.9 sec)
   => CPCM response operators                      ... done (     1.2 sec)
   => Completing and storing right hand sides      ... done (     0.0 sec)
   => Total time for right hand sides =   9.9 sec

  geometrical perturbations done (  9.9 sec)

Property integrals calculated in   9.9 sec

Maximum memory used throughout the entire PROPINT-calculation: 37.5 MB
Текущая кодовая страница: 1251


           ************************************************************
           *        Program running with 6 parallel MPI-processes     *
           *              working on a common directory               *
           ************************************************************
------------------------------------------------------------------------------
                            ORCA SCF RESPONSE CALCULATION
------------------------------------------------------------------------------

GBWName                                 ... 2H_triazole_freq.gbw
Number of atoms                         ...      8
Number of basis functions               ...    173
Max core memory                         ...   4000 MB

Electric field perturbation             ...  NO
Quadrupolar field perturbation          ...  NO
Magnetic field perturbation (no GIAO)   ...  NO
Magnetic field perturbation (with GIAO) ...  NO
Linear momentum (velocity) perturbation ...  NO
Spin-orbit coupling perturbation        ...  NO
Choice of electric origin               ... Center of mass
Position of electric origin             ...     6.534966     1.219394    -0.308840
Choice of magnetic origin               ... GIAO
Position of magnetic origin             ...     0.000000     0.000000     0.000000
Nuclear geometric perturbations         ... YES (  24 perturbations)
Nucleus-orbit perturbations             ...  NO (   0 perturbations)
Spin-dipole/Fermi contact perturbations ...  NO (   0 perturbations)

Total number of real perturbations      ...     24
Total number of imaginary perturbations ...      0
Total number of triplet perturbations   ...      0
Total number of SOC perturbations       ...      0

Using XC Grid                  ... (2H_triazole_freq.grid_cpscf.tmp) 
Recalculating density on grid  ... (2H_triazole_freq.grho_cpscf0.tmp) done
Calculating the xc-kernel      ... (2H_triazole_freq.fxc_cpscf0.tmp) done

                                **********************
                                * REAL PERTURBATIONS *
                                **********************



-------------------
SHARK CP-SCF DRIVER
-------------------

Dimension of the orbital basis          ...    173
Dimension of the CPSCF-problem          ...   2790
Number of operators                     ...      1
Max. number of iterations               ...    128
Convergence Tolerance                   ... 1.0e-04
Number of perturbations                 ...     24
Perturbation type                       ... REAL

----------------------------
POPLE LINEAR EQUATION SOLVER
----------------------------

  ITERATION   0:   ||err||_max =   6.8388e-01 (   1.4 sec   0/ 24 done)
  ITERATION   1:   ||err||_max =   6.4332e-02 (   1.4 sec   0/ 24 done)
  ITERATION   2:   ||err||_max =   2.3058e-02 (   1.7 sec   0/ 24 done)
  ITERATION   3:   ||err||_max =   7.5696e-03 (   1.4 sec   0/ 24 done)
  ITERATION   4:   ||err||_max =   1.9836e-03 (   1.5 sec   0/ 24 done)
  ITERATION   5:   ||err||_max =   7.2352e-04 (   3.3 sec   1/ 24 done)
  ITERATION   6:   ||err||_max =   1.4552e-04 (   1.8 sec  16/ 24 done)
  ITERATION   7:   ||err||_max =   4.0430e-05 (   0.8 sec  24/ 24 done)

CP-SCF equations solved in  15.2 sec
Response densities calculated in   0.0 sec

Maximum memory used throughout the entire SCFRESP-calculation: 22.5 MB
Текущая кодовая страница: 1251


           ************************************************************
           *        Program running with 6 parallel MPI-processes     *
           *              working on a common directory               *
           ************************************************************

------------------------------------------------------------------------------
                              ORCA PROPERTY CALCULATIONS
------------------------------------------------------------------------------

GBWName                                 ... 2H_triazole_freq.gbw
Number of atoms                         ...      8
Number of basis functions               ...    173
Max core memory                         ...   4000 MB

Electric properties:
Dipole moment                           ...  NO
Quadrupole moment                       ...  NO
Static polarizability (Dipole/Dipole)   ...  NO
Static polarizability (Dipole/Quad.)    ...  NO
Static polarizability (Quad./Quad.)     ...  NO
Static polarizability (Velocity)        ...  NO
Static hyperpolarizability              ...  NO

Atomic electric properties:
Dipole moment                           ...  NO
Quadrupole moment                       ...  NO
Static polarizability                   ...  NO

Choice of electric origin               ... Center of mass
Position of electric origin             ...     6.534966     1.219394    -0.308840

General magnetic properties:
Magnetizability                         ...  NO

EPR properties:
g-Tensor (aka g-matrix)                 ...  NO
Zero-Field splitting spin-orbit         ...  NO
Zero-field splitting spin-spin          ...  NO
Hyperfine couplings                     ...  NO (   0 nuclei)
Quadrupole couplings                    ...  NO (   0 nuclei)
Contact density                         ...  NO (   0 nuclei)

NMR properties:
Chemical shifts                         ...  NO (   0 nuclei)
Spin-rotation constants                 ...  NO (   0 nuclei)
Spin-spin couplings                     ...  NO (   0 nuclei,    0 pairs)

Choice of magnetic origin               ... GIAO
Position of magnetic origin             ...     0.000000     0.000000     0.000000

Properties with geometric perturbations:
SCF Hessian                             ... YES
IR spectrum                             ... YES
VCD spectrum                            ...  NO
X-ray spectroscopy properties:
SCF XES/XAS/RIXS spectra                ...  NO

SCF SOC stabilization energy            ...  NO
Diagonal Born-Oppenheimer correction    ...  NO

-----------
SCF HESSIAN
-----------

Occupied/Occupied contributions to the Hessian:
   => Occupied/Occupied contributions              ... done (  0.0 sec)
Perturbed density contributions to the Hessian:
   => Perturbed density contributions              ... done (  0.0 sec)
Explicit contributions to the Hessian:
   => Nuclear repulsion Hessian                    ... done (  0.0 sec)
   => HCore and overlap Hessian                    ... done (  0.3 sec)
   => RI-J Hessian                                 ... done (  1.0 sec)
   => XC-Hessian                                   ... done (  3.4 sec)
   => CPCM-Hessian                                 ... done (  0.7 sec)
   => Van der Waals-Hessian                        ... done (  0.4 sec)
   => SMD-Hessian                                  ... done (  0.1 sec)
   => Explicit contributions done
Dipole derivatives                                 ... done (  0.0 sec)
Mass weighting the Hessian           ... done
Calculating normal modes             ... done
Scaling frequencies                  ... done

-----------------------
VIBRATIONAL FREQUENCIES
-----------------------

Scaling factor for frequencies =  1.000000000  (already applied!)

     0:       0.00 cm**-1
     1:       0.00 cm**-1
     2:       0.00 cm**-1
     3:       0.00 cm**-1
     4:       0.00 cm**-1
     5:       0.00 cm**-1
     6:    -345.31 cm**-1  ***imaginary mode***
     7:     619.73 cm**-1
     8:     673.19 cm**-1
     9:     765.30 cm**-1
    10:     840.62 cm**-1
    11:     867.87 cm**-1
    12:     920.49 cm**-1
    13:     976.15 cm**-1
    14:    1049.66 cm**-1
    15:    1108.43 cm**-1
    16:    1153.10 cm**-1
    17:    1219.39 cm**-1
    18:    1324.49 cm**-1
    19:    1413.34 cm**-1
    20:    1464.45 cm**-1
    21:    3207.22 cm**-1
    22:    3219.88 cm**-1
    23:    3897.16 cm**-1


------------
NORMAL MODES
------------

These modes are the Cartesian displacements weighted by the diagonal matrix
M(i,i)=1/sqrt(m[i]) where m[i] is the mass of the displaced atom
Thus, these vectors are normalized but *not* orthogonal

                  0          1          2          3          4          5    
      0       0.000000   0.000000   0.000000   0.000000   0.000000   0.000000
      1       0.000000   0.000000   0.000000   0.000000   0.000000   0.000000
      2       0.000000   0.000000   0.000000   0.000000   0.000000   0.000000
      3       0.000000   0.000000   0.000000   0.000000   0.000000   0.000000
      4       0.000000   0.000000   0.000000   0.000000   0.000000   0.000000
      5       0.000000   0.000000   0.000000   0.000000   0.000000   0.000000
      6       0.000000   0.000000   0.000000   0.000000   0.000000   0.000000
      7       0.000000   0.000000   0.000000   0.000000   0.000000   0.000000
      8       0.000000   0.000000   0.000000   0.000000   0.000000   0.000000
      9       0.000000   0.000000   0.000000   0.000000   0.000000   0.000000
     10       0.000000   0.000000   0.000000   0.000000   0.000000   0.000000
     11       0.000000   0.000000   0.000000   0.000000   0.000000   0.000000
     12       0.000000   0.000000   0.000000   0.000000   0.000000   0.000000
     13       0.000000   0.000000   0.000000   0.000000   0.000000   0.000000
     14       0.000000   0.000000   0.000000   0.000000   0.000000   0.000000
     15       0.000000   0.000000   0.000000   0.000000   0.000000   0.000000
     16       0.000000   0.000000   0.000000   0.000000   0.000000   0.000000
     17       0.000000   0.000000   0.000000   0.000000   0.000000   0.000000
     18       0.000000   0.000000   0.000000   0.000000   0.000000   0.000000
     19       0.000000   0.000000   0.000000   0.000000   0.000000   0.000000
     20       0.000000   0.000000   0.000000   0.000000   0.000000   0.000000
     21       0.000000   0.000000   0.000000   0.000000   0.000000   0.000000
     22       0.000000   0.000000   0.000000   0.000000   0.000000   0.000000
     23       0.000000   0.000000   0.000000   0.000000   0.000000   0.000000
                  6          7          8          9         10         11    
      0      -0.009295  -0.085461   0.022520  -0.031304   0.034335   0.073857
      1      -0.006875   0.181091  -0.012655   0.079693  -0.076670  -0.015749
      2       0.008418   0.155775  -0.020063   0.072368  -0.055499  -0.099057
      3       0.002105   0.072157   0.058517  -0.027343  -0.024502  -0.136233
      4       0.014673  -0.160066  -0.154355   0.048981   0.101659   0.107826
      5       0.013804  -0.135740  -0.135954   0.032897   0.109781  -0.089307
      6      -0.007254  -0.038357  -0.154928  -0.005500   0.036362  -0.161731
      7       0.012259   0.078857   0.320303  -0.015108   0.016134  -0.149712
      8       0.000853   0.061974   0.272116  -0.011170  -0.024005   0.058115
      9       0.051938   0.078313  -0.067446   0.016109  -0.025031   0.110627
     10      -0.040348  -0.147193   0.181639  -0.001056  -0.030134   0.108127
     11      -0.092684  -0.133859   0.161363  -0.025352   0.025508  -0.047332
     12      -0.008873  -0.030124   0.166300   0.016788  -0.034719   0.128039
     13      -0.013855   0.059558  -0.348388  -0.018845   0.007290  -0.039903
     14       0.011217   0.065377  -0.293049   0.007780  -0.035036   0.153477
     15      -0.019032  -0.217060  -0.007681   0.268119  -0.164528  -0.070059
     16       0.008414   0.462558   0.039064  -0.607421   0.426554   0.066033
     17       0.044206   0.413041   0.061406  -0.432554   0.202008   0.558188
     18      -0.011146   0.178372   0.169278   0.180629   0.213665   0.253396
     19       0.020596  -0.387562  -0.369152  -0.417100  -0.634782   0.009286
     20       0.021078  -0.325717  -0.317828  -0.352453  -0.477024  -0.259918
     21      -0.381767   0.060600  -0.348017  -0.130633   0.158694  -0.509161
     22       0.460923  -0.203552   0.186369  -0.022244   0.003700  -0.040150
     23       0.790122  -0.235609   0.164068  -0.069896   0.094185  -0.336320
                 12         13         14         15         16         17    
      0       0.341516   0.027486  -0.076058  -0.168750  -0.116768  -0.001446
      1       0.104493  -0.031644  -0.106495  -0.052014   0.035368   0.005192
      2       0.089680   0.005130   0.064611  -0.017188  -0.086636   0.003118
      3      -0.006890  -0.013566   0.080099  -0.001151  -0.060094  -0.064692
      4       0.177016  -0.064699   0.097946   0.026226   0.062403   0.060026
      5      -0.239646   0.077048  -0.068098  -0.026674  -0.115370  -0.107455
      6      -0.108043   0.074413   0.067812  -0.039373   0.073899   0.137278
      7       0.036151   0.103549   0.086650   0.018772   0.083453  -0.080894
      8      -0.105426  -0.093845  -0.070351  -0.038665  -0.051549   0.175324
      9      -0.080602  -0.055751  -0.028704  -0.143717   0.026046  -0.130109
     10      -0.251258   0.008426  -0.013509  -0.135877   0.007218  -0.056087
     11       0.219151  -0.033841   0.017653   0.060594   0.021648  -0.025698
     12      -0.080625   0.056955  -0.055695   0.305437   0.051781   0.097646
     13      -0.039266  -0.011873  -0.040752   0.106860  -0.172246   0.120668
     14       0.025872   0.072832   0.020602   0.037224   0.207260  -0.090313
     15       0.364113  -0.015724  -0.076437  -0.203117  -0.112542   0.015626
     16       0.247389   0.112780  -0.514023   0.265323   0.003911  -0.366524
     17      -0.215229   0.004521   0.639802  -0.449180  -0.125466   0.455663
     18      -0.257506  -0.448578   0.400170   0.620009  -0.551603  -0.675149
     19       0.181045  -0.220111   0.240304   0.260036  -0.131460  -0.204620
     20      -0.190659   0.087042  -0.070267  -0.034328  -0.144669  -0.141655
     21      -0.352191  -0.752329  -0.141407  -0.092520   0.663219  -0.008875
     22      -0.248069  -0.135685  -0.074488  -0.075719   0.096096   0.020700
     23       0.253013  -0.308522  -0.081977   0.184180   0.212629   0.105027
                 18         19         20         21         22         23    
      0      -0.144232  -0.101695   0.155645   0.056942  -0.062639   0.001842
      1      -0.006584  -0.203636  -0.139825   0.015192  -0.020519  -0.001248
      2      -0.076940   0.174515   0.249393   0.012978  -0.009658   0.002527
      3      -0.190458   0.196861  -0.257358  -0.014757  -0.010260  -0.000839
      4       0.001543   0.164371  -0.033819   0.035118   0.037216  -0.000637
      5      -0.098288  -0.093643  -0.098957  -0.050431  -0.050403   0.000757
      6       0.215508  -0.067085   0.147635   0.000646   0.001986  -0.000360
      7       0.010344  -0.067383   0.037259   0.000360   0.000642  -0.000872
      8       0.092913   0.043924   0.039887  -0.000013   0.000365   0.001255
      9       0.226306   0.065058  -0.114896  -0.000400   0.000977   0.000002
     10      -0.048133   0.071765   0.100893   0.000323  -0.000908   0.064911
     11       0.166002  -0.032462  -0.173603  -0.000832   0.001988  -0.038612
     12      -0.112161  -0.017250  -0.011783  -0.001095   0.000606   0.000457
     13       0.026870   0.010395  -0.050413  -0.001132  -0.000191   0.000236
     14      -0.065951  -0.020211   0.040789   0.000531   0.000599  -0.000285
     15      -0.173535  -0.169276   0.144144  -0.648488   0.679844  -0.003617
     16       0.227207   0.377837   0.378494  -0.190383   0.204466  -0.000596
[...]
      8       0.006556  -0.071479   0.191093  -0.001349   0.007761  -0.061293
      9       0.084643  -0.011441  -0.036696   0.008466   0.003763  -0.177393
     10      -0.175456   0.023158   0.074810  -0.018061  -0.007690  -0.097444
     11      -0.164177   0.021931   0.070322  -0.016543  -0.006943   0.012931
     12      -0.037421  -0.000697   0.100633   0.008858  -0.000294   0.023836
     13       0.076430   0.000654  -0.208296  -0.018517   0.000818   0.123458
     14       0.071390   0.000350  -0.195640  -0.017537   0.000452  -0.118822
     15      -0.146215   0.103093  -0.048428   0.253665   0.194849  -0.215336
     16       0.301312  -0.212677   0.099785  -0.522154  -0.402109   0.437021
     17       0.281459  -0.200530   0.091841  -0.492437  -0.378409  -0.573162
     18       0.049455  -0.126920   0.068858   0.206930  -0.258615  -0.224913
     19      -0.101988   0.263692  -0.141924  -0.432487   0.541532  -0.281701
     20      -0.095357   0.246717  -0.132536  -0.404121   0.506329   0.188217
     21      -0.270811  -0.270371  -0.278624  -0.032605  -0.027591   0.131338
     22       0.573053   0.569209   0.586445   0.069803   0.060211  -0.073999
     23       0.538662   0.534789   0.551060   0.066190   0.057107   0.138898
                 12         13         14         15         16         17    
      0      -0.299345  -0.108950  -0.055139   0.012780  -0.108773   0.236321
      1      -0.078951   0.021565   0.021886   0.077299   0.005782   0.029110
      2      -0.070317  -0.079571  -0.052192  -0.076136  -0.062255   0.091492
      3      -0.018819  -0.102878   0.030634  -0.118528  -0.191399  -0.001418
      4      -0.125949  -0.028897   0.000470  -0.051914   0.127631  -0.094282
      5       0.125224  -0.021639   0.015754  -0.006385  -0.235596   0.099644
      6       0.120742  -0.124249  -0.086448   0.023458   0.295883  -0.002232
      7      -0.019428  -0.139487  -0.092389  -0.035036  -0.019956  -0.235785
      8       0.083126   0.084861   0.053704   0.049576   0.174279   0.250558
      9       0.119072  -0.129225   0.076385   0.092128  -0.060809  -0.073613
     10       0.243697  -0.032587  -0.024090   0.046961  -0.137600   0.093970
     11      -0.198425  -0.032936   0.065865  -0.002279   0.116044  -0.138775
     12       0.012640   0.467162  -0.044321   0.010438   0.015141  -0.096526
     13      -0.031291   0.161135   0.061689  -0.050001   0.070647   0.222104
     14       0.039807   0.069347  -0.088545   0.058888  -0.067486  -0.286987
     15      -0.250283  -0.143828  -0.092296  -0.036795  -0.066744   0.294696
     16      -0.498745   0.166542   0.253829   0.442520  -0.412702  -0.130182
     17       0.399643  -0.252705  -0.315577  -0.489928   0.405310   0.290100
     18       0.267959   0.309279   0.551685  -0.633205  -0.207956  -0.452506
     19      -0.009913   0.145241   0.220985  -0.273655   0.139445  -0.309743
     20       0.146220   0.001970   0.044678  -0.031972  -0.256260   0.099405
     21       0.265400  -0.610749   0.588318   0.178851   0.374511  -0.245973
     22       0.268582  -0.072419   0.020142   0.057761  -0.108770   0.100807
     23      -0.151101  -0.228467   0.273982   0.029662   0.303541  -0.232420
                 18         19         20         21         22         23    
      0       0.030669  -0.077179  -0.172849   0.034005  -0.078930   0.003057
      1      -0.016676   0.200984  -0.164118   0.009223  -0.028181  -0.000803
      2       0.033620  -0.254511   0.085794   0.007747  -0.010743   0.002441
      3      -0.158957   0.076522   0.179458  -0.017203  -0.004539  -0.000659
      4      -0.075414  -0.078162   0.173313   0.049293   0.027252  -0.001263
      5      -0.001334   0.123115  -0.092348  -0.061520  -0.031439   0.000990
      6       0.096898  -0.037041  -0.021216   0.000468   0.001277  -0.000336
      7       0.040532   0.009722  -0.062823   0.000059   0.000082  -0.001608
      8       0.007012  -0.029506   0.056234   0.000189   0.000568   0.001529
      9       0.088970   0.118600   0.142525  -0.000222   0.002145   0.013943
     10       0.005816  -0.097449   0.018725  -0.000403   0.000018   0.054879
     11       0.039189   0.165020   0.053252   0.000309   0.001094  -0.051392
     12      -0.069571  -0.026627  -0.032976  -0.000345   0.001537   0.000004
     13       0.004528   0.040895   0.033833  -0.001172  -0.000140   0.000233
     14      -0.040963  -0.057534  -0.053216   0.001070   0.000932  -0.000239
     15       0.001133   0.007714  -0.268149  -0.399228   0.845105  -0.015271
     16       0.227455  -0.407480   0.157290  -0.130836   0.284409  -0.003094
     17      -0.241920   0.438060  -0.306190  -0.066877   0.133643  -0.004575
     18       0.548634  -0.227285  -0.452014   0.197033   0.088480  -0.001382
     19       0.225380  -0.227332  -0.072147  -0.548072  -0.258139   0.001630
     20       0.041205   0.126312  -0.155190   0.687012   0.321358  -0.002484
     21      -0.637176  -0.535922  -0.586047   0.003361  -0.007895  -0.201054
     22      -0.062503  -0.177914  -0.052057   0.002712  -0.014637  -0.717403
     23      -0.256776  -0.082299  -0.242429  -0.001177   0.011571   0.662393


-----------
IR SPECTRUM
-----------

 Mode   freq       eps      Int      T**2         TX        TY        TZ
       cm**-1   L/(mol*cm) km/mol    a.u.
----------------------------------------------------------------------------
  6:    597.58   0.014893   75.26  0.007777  (-0.029098  0.060485  0.057201)
  7:    649.23   0.013089   66.15  0.006292  (-0.025998  0.054605  0.051323)
  8:    705.81   0.004801   24.26  0.002123  (-0.015202  0.031623  0.029858)
  9:    769.81   0.013790   69.69  0.005590  ( 0.025103 -0.051398 -0.048148)
 10:    853.61   0.000839    4.24  0.000307  (-0.005377  0.012355  0.011180)
 11:    931.32   0.000070    0.35  0.000023  (-0.003927  0.000423 -0.002774)
 12:    941.79   0.001887    9.54  0.000625  (-0.001499 -0.017513  0.017784)
 13:    994.60   0.008280   41.84  0.002598  (-0.006526  0.033030 -0.038267)
 14:   1054.49   0.018971   95.87  0.005614  ( 0.069677  0.026663  0.006950)
 15:   1079.66   0.000907    4.59  0.000262  (-0.009052  0.006563 -0.011714)
 16:   1137.16   0.003503   17.70  0.000961  ( 0.029057  0.004782  0.009700)
 17:   1179.62   0.001498    7.57  0.000396  ( 0.017600 -0.000092  0.009303)
 18:   1324.02   0.000565    2.86  0.000133  (-0.010701 -0.004273 -0.000656)
 19:   1401.28   0.000062    0.31  0.000014  ( 0.003244  0.000075  0.001786)
 20:   1477.88   0.003361   16.98  0.000710  (-0.023851 -0.000209 -0.011863)
 21:   3202.69   0.000472    2.39  0.000046  (-0.006371 -0.002047 -0.001107)
 22:   3222.34   0.000750    3.79  0.000073  ( 0.007941  0.002856  0.001175)
 23:   3487.11   0.042409  214.32  0.003795  (-0.012502 -0.044318  0.040925)

* The epsilon (eps) is given for a Dirac delta lineshape.
** The dipole moment derivative (T) already includes vibrational overlap.

The first frequency considered to be a vibration is 6
The total number of vibrations considered is 18


--------------------------
THERMOCHEMISTRY AT 298.15K
--------------------------

Temperature         ...   298.15 K
Pressure            ...     1.00 atm
Total Mass          ...    69.07 AMU
Quasi RRHO          ...     True
Cut-Off Frequency   ...     1.00 cm^-1

Throughout the following assumptions are being made:
  (1) The electronic state is orbitally nondegenerate
  (2) There are no thermally accessible electronically excited states
  (3) Hindered rotations indicated by low frequency modes are not
      treated as such but are treated as vibrations and this may
      cause some error
  (4) All equations used are the standard statistical mechanics
      equations for an ideal gas
  (5) All vibrations are strictly harmonic

freq.     597.58  E(vib)   ...       0.10 
freq.     649.23  E(vib)   ...       0.08 
freq.     705.81  E(vib)   ...       0.07 
freq.     769.81  E(vib)   ...       0.05 
freq.     853.61  E(vib)   ...       0.04 
freq.     931.32  E(vib)   ...       0.03 
freq.     941.79  E(vib)   ...       0.03 
freq.     994.60  E(vib)   ...       0.02 
freq.    1054.49  E(vib)   ...       0.02 
freq.    1079.66  E(vib)   ...       0.02 
freq.    1137.16  E(vib)   ...       0.01 
freq.    1179.62  E(vib)   ...       0.01 
freq.    1324.02  E(vib)   ...       0.01 
freq.    1401.28  E(vib)   ...       0.00 
freq.    1477.88  E(vib)   ...       0.00 
freq.    3202.69  E(vib)   ...       0.00 
freq.    3222.34  E(vib)   ...       0.00 
freq.    3487.11  E(vib)   ...       0.00 

------------
INNER ENERGY
------------

The inner energy is: U= E(el) + E(ZPE) + E(vib) + E(rot) + E(trans)
    E(el)   - is the total energy from the electronic structure calculation
              = E(kin-el) + E(nuc-el) + E(el-el) + E(nuc-nuc)
    E(ZPE)  - the the zero temperature vibrational energy from the frequency calculation
    E(vib)  - the the finite temperature correction to E(ZPE) due to population
              of excited vibrational states
    E(rot)  - is the rotational thermal energy
    E(trans)- is the translational thermal energy

Summary of contributions to the inner energy U:
Electronic energy                ...   -242.28663780 Eh
Zero point energy                ...      0.05697700 Eh      35.75 kcal/mol
Thermal vibrational correction   ...      0.00080948 Eh       0.51 kcal/mol
Thermal rotational correction    ...      0.00141627 Eh       0.89 kcal/mol
Thermal translational correction ...      0.00141627 Eh       0.89 kcal/mol
-----------------------------------------------------------------------
Total thermal energy                   -242.22601878 Eh


Summary of corrections to the electronic energy:
(perhaps to be used in another calculation)
Total thermal correction                  0.00364202 Eh       2.29 kcal/mol
Non-thermal (ZPE) correction              0.05697700 Eh      35.75 kcal/mol
-----------------------------------------------------------------------
Total correction                          0.06061902 Eh      38.04 kcal/mol


--------
ENTHALPY
--------

The enthalpy is H = U + kB*T
                kB is Boltzmann's constant
Total thermal energy              ...   -242.22601878 Eh 
Thermal Enthalpy correction       ...      0.00094421 Eh       0.59 kcal/mol
-----------------------------------------------------------------------
Total Enthalpy                    ...   -242.22507457 Eh


Note: Only C1 symmetry has been detected, increase convergence thresholds 
      if your molecule has a higher symmetry. Symmetry factor of 1.0 is   
      used for the rotational entropy correction. 
 

Note: Rotational entropy computed according to Herzberg 
Infrared and Raman Spectra, Chapter V,1, Van Nostrand Reinhold, 1945 
Point Group:  C1, Symmetry Number:   1  
Rotational constants in cm-1:     0.330773     0.324576     0.163823 

Vibrational entropy computed according to the QRRHO of S. Grimme
Chem.Eur.J. 2012 18 9955 using a reference frequency of 100.0 cm-1


-------
ENTROPY
-------

The entropy contributions are T*S = T*(S(el)+S(vib)+S(rot)+S(trans))
     S(el)   - electronic entropy
     S(vib)  - vibrational entropy
     S(rot)  - rotational entropy
     S(trans)- translational entropy
The entropies will be listed as multiplied by the temperature to get
units of energy

Electronic entropy                ...      0.00000000 Eh      0.00 kcal/mol
Vibrational entropy               ...      0.00102734 Eh      0.64 kcal/mol
Rotational entropy                ...      0.01141831 Eh      7.17 kcal/mol
Translational entropy             ...      0.01834709 Eh     11.51 kcal/mol
-----------------------------------------------------------------------
Final entropy term                ...      0.03079274 Eh     19.32 kcal/mol

In case the symmetry of your molecule has not been determined correctly
or in case you have a reason to use a different symmetry number we print 
out the resulting rotational entropy values for sn=1,12:

 non-linear molecules -----------------------------------
|  sn= 1 | S(rot)=       0.01141831 Eh      7.17 kcal/mol|
|  sn= 2 | S(rot)=       0.01076385 Eh      6.75 kcal/mol|
|  sn= 3 | S(rot)=       0.01038102 Eh      6.51 kcal/mol|
|  sn= 4 | S(rot)=       0.01010939 Eh      6.34 kcal/mol|
|  sn= 5 | S(rot)=       0.00989870 Eh      6.21 kcal/mol|
|  sn= 6 | S(rot)=       0.00972656 Eh      6.10 kcal/mol|
|  sn= 7 | S(rot)=       0.00958101 Eh      6.01 kcal/mol|
|  sn= 8 | S(rot)=       0.00945494 Eh      5.93 kcal/mol|
|  sn= 9 | S(rot)=       0.00934373 Eh      5.86 kcal/mol|
|  sn=10 | S(rot)=       0.00924425 Eh      5.80 kcal/mol|
|  sn=11 | S(rot)=       0.00915426 Eh      5.74 kcal/mol|
|  sn=12 | S(rot)=       0.00907210 Eh      5.69 kcal/mol|
 linear molecules ---------------------------------------
|  Dinfh | S(rot)=       0.00703380 Eh      4.41 kcal/mol|
|  Cinfv | S(rot)=       0.00768826 Eh      4.82 kcal/mol|
 --------------------------------------------------------


-------------------
GIBBS FREE ENERGY
-------------------

The Gibbs free energy is G = H - T*S

Total enthalpy                    ...   -242.22507457 Eh 
Total entropy correction          ...     -0.03079274 Eh    -19.32 kcal/mol
-----------------------------------------------------------------------
Final Gibbs free energy         ...   -242.25586731 Eh

For completeness - the Gibbs free energy minus the electronic energy
G-E(el)                           ...      0.03077049 Eh     19.31 kcal/mol


Maximum memory used throughout the entire PROP-calculation: 29.1 MB
Текущая кодовая страница: 1251

--------------------------------
SUGGESTED CITATIONS FOR THIS RUN
--------------------------------

Below you find a list of papers that are relevant to this ORCA run
We neither can nor want to force you to cite these papers, but we appreciate if you do
You receive ORCA, which is the product of decades of hard work by many enthusiastic individuals, for free
The only thing we kindly ask in return is that you cite our papers,
We deeply appreciate it, if you show your appreciation for ORCA by not just citing the generic ORCA reference.

Please note that relegating all ORCA citations to the supporting information does *not* help us.
SI sections are not indexed - citations you put there will not count into any citation statistics
But we need these citations in order to attract the funding resources that allow us to do what we are doing

Therefore, if you are a happy ORCA user, please consider citing a few of the papers listed below in the main body of your paper

In addition to the list printed below, the program has created the file 2H_triazole_freq.bibtex that contains the list in bibtex format
You can import this file easily into all common literature databanks and citation aid programs

It goes without saying that in many instances, there are alternative algorithms to achieve similar
results as the ones you have gotten from ORCA. It is, of course, also the case that in some instances
ORCA just re-implements algorithms worked out by others. We are fully aware of that and we are also
fully appreciative of our colleagues work. Hence this citation list should not be read as indicating
that the listed papers, which are focused on our own work, are the only ones worth citing. It simply
meant to make it easier for users to cite ORCA specific papers. It is not a substitute for doing your
own literature research and citing the relevant literature in a scientifically appropriate manner.

List of essential papers. We consider these as the minimum necessary citations

  1. Neese, F.
     Software update: the ORCA program system, version 6.0
     WIRES Comput. Molec. Sci. 2025 15(1), e70019
     doi.org/10.1002/wcms.70019

List of papers to cite with high priority. The work reported in these papers was absolutely
necessary for this run to complete.
Our perspective: the developers of density functionals and basis sets usually get cited in chemistry papers
Good! But without the algorithms to do something with them, the functionals or basis sets would not do anything.
Hence, in our opinion, the algorithm design and method developments papers are equally worthy of getting cited

  1. Neese, F.
     An improvement of the resolution of the identity approximation for the formation of the Coulomb matrix
     J. Comp. Chem. 2003 24(14), 1740-1747
     doi.org/10.1002/jcc.10318
  2. Grimme, S.; Antony, J.; Ehrlich, S.; Krieg, H.
     A consistent and accurate ab initio parametrization of density functional dispersion correction (DFT-D) for the 94 elements H-Pu
     J. Chem. Phys. 2010 132 , 154104
     doi.org/10.1063/1.3382344
  3. Grimme, S.; Ehrlich, S.; Goerigk, L.
     Effect of the damping function in dispersion corrected density functional theory
     J. Comput. Chem. 2011 32(7), 1456-1465
     doi.org/10.1002/jcc.21759
  4. Bykov, D.; Petrenko, T.; Izsak, R.; Kossmann, S.; Becker, U.; Valeev, E.; Neese, F.
     Efficient implementation of the analytic second derivatives of Hartree-Fock and hybrid DFT energies: a detailed analysis of different approximations
     Molec. Phys. 2015 113 , 1961-1977
     doi.org/10.1080/00268976.2015.1025114
  5. Garcia-Rates, M.; Neese, F.
     Efficient implementation of the analytical second derivatives of hartree-fock and hybrid DFT energies within the framework of the conductor-like polarizable continuum model
     J. Comput. Chem. 2019 40 , 1816-1828
     doi.org/10.1002/jcc.25833
  6. Garcia-Rates, M.; Neese, F.
     Effect of the Solute Cavity on the Solvation Energy and its Derivatives within the Framework of the Gaussian Charge Scheme
     J. Comput. Chem. 2020 41 , 922-939
     doi.org/10.1002/jcc.26139
  7. Neese, F.
     The SHARK Integral Generation and Digestion System
     J. Comp. Chem. 2022 44(3), 381
     doi.org/10.1002/jcc.26942

List of suggested additional citations. These are papers that are important in the 'surrounding' of 
of this run, or papers that preceded the highly important papers. If you like your results we are grateful for a citation.

  1. Neese, F.
     The ORCA program system
     WIRES Comput. Molec. Sci. 2012 2(1), 73-78
     doi.org/10.1002/wcms.81
  2. Neese, F.
     Software update: the ORCA program system, version 4.0
     WIRES Comput. Molec. Sci. 2018 8(1), 1-6
     doi.org/10.1002/wcms.1327
  3. Neese, F.; Wennmohs, F.; Becker, U.; Riplinger, C.
     The ORCA quantum chemistry program package
     J. Chem. Phys. 2020 152(22), 224108
     doi.org/10.1063/5.0004608
  4. Neese, F.
     Software update: The ORCA program system—Version 5.0
     WIRES Comput. Molec. Sci. 2022 12(1), e1606
     doi.org/10.1002/wcms.1606

List of optional additional citations

  1. Neese, F.
     Approximate second-order SCF convergence for spin unrestricted wavefunctions
     Chem. Phys. Lett. 2000 325(1-3), 93-98
     doi.org/10.1016/s0009-2614(00)00662-x

Timings for individual modules:

Sum of individual times          ...       75.651 sec (=   1.261 min)
Startup calculation              ...        3.562 sec (=   0.059 min)   4.7 %
SCF iterations                   ...       34.332 sec (=   0.572 min)  45.4 %
Property integrals               ...       10.705 sec (=   0.178 min)  14.2 %
SCF Response                     ...       13.100 sec (=   0.218 min)  17.3 %
Property calculations            ...        5.932 sec (=   0.099 min)   7.8 %
SCF Gradient evaluation          ...        7.938 sec (=   0.132 min)  10.5 %
Geometry relaxation              ...        0.082 sec (=   0.001 min)   0.1 %
                             ****ORCA TERMINATED NORMALLY****
TOTAL RUN TIME: 0 days 0 hours 1 minutes 49 seconds 574 msec
