
                                 *****************
                                 * O   R   C   A *
                                 *****************

                                            #,                                       
                                            ###                                      
                                            ####                                     
                                            #####                                    
                                            ######                                   
                                           ########,                                 
                                     ,,################,,,,,                         
                               ,,#################################,,                 
                          ,,##########################################,,             
                       ,#########################################, ''#####,          
                    ,#############################################,,   '####,        
                  ,##################################################,,,,####,       
                ,###########''''           ''''###############################       
              ,#####''   ,,,,##########,,,,          '''####'''          '####       
            ,##' ,,,,###########################,,,                        '##       
           ' ,,###''''                  '''############,,,                           
         ,,##''                                '''############,,,,        ,,,,,,###''
      ,#''                                            '''#######################'''  
     '                                                          ''''####''''         
             ,#######,   #######,   ,#######,      ##                                
            ,#'     '#,  ##    ##  ,#'     '#,    #''#        ,####,   ,####,        
            ##       ##  ##   ,#'  ##            #'  '#       #'       #'  '#        
            ##       ##  #######   ##           ,######,      #####,   #    #        
            '#,     ,#'  ##    ##  '#,     ,#' ,#      #,     #,   #   #,  ,#        
             '#######'   ##     ##  '#######'  #'      '#     '####' # '####'        



                #########################################################
                #                        -***-                          #
                #          Department of theory and spectroscopy        #
                #                                                       #
                #                      Frank Neese                      #
                #                                                       #
                #     Directorship, Architecture, Infrastructure        #
                #                    SHARK, DRIVERS                     #
                #        Core code/Algorithms in most modules           #
                #                                                       #
                #        Max Planck Institute fuer Kohlenforschung      #
                #                Kaiser Wilhelm Platz 1                 #
                #                 D-45470 Muelheim/Ruhr                 #
                #                      Germany                          #
                #                                                       #
                #                  All rights reserved                  #
                #                        -***-                          #
                #########################################################


                         Program Version 6.0.1  -  RELEASE   -


 With contributions from (in alphabetic order):
[Max-Planck-Institut fuer Kohlenforschung]                               
  Daniel Aravena         : Magnetic Suceptibility                        
  Michael Atanasov       : Ab Initio Ligand Field Theory (pilot matlab implementation)
  Alexander A. Auer      : GIAO ZORA, VPT2 properties, NMR spectrum      
  Ute Becker             : All parallelization in ORCA, NUMFREQ, NUMCALC 
  Giovanni Bistoni       : ED, misc. LED, open-shell LED, HFLD           
  Martin Brehm           : Molecular dynamics                            
  Dmytro Bykov           : pre 5.0 version of the SCF Hessian            
  Marcos Casanova-Páez   : Triplet and SCS-CIS(D). UHF-(DLPNO)-IP/EA/STEOM-CCSD. UHF-CVS-IP/STEOM-CCSD   
  Vijay G. Chilkuri      : MRCI spin determinant printing, contributions to CSF-ICE 
  Pauline Colinet        : FMM embedding                                 
  Dipayan Datta          : RHF DLPNO-CCSD density                        
  Achintya Kumar Dutta   : EOM-CC, STEOM-CC                              
  Nicolas Foglia         : Exact transition moments, OPA infrastructure, MCD improvements    
  Dmitry Ganyushin       : Spin-Orbit,Spin-Spin,Magnetic field MRCI      
  Miquel Garcia-Rates    : C-PCM and meta-GGA Hessian, CCSD/C-PCM, Gaussian charge scheme 
  Tiago L. C. Gouveia    : GS-ROHF, GS-ROCIS                             
  Yang Guo               : DLPNO-NEVPT2, F12-NEVPT2, CIM, IAO-localization        
  Andreas Hansen         : Spin unrestricted coupled pair/coupled cluster methods 
  Ingolf Harden          : AUTO-CI MPn and infrastructure                
  Benjamin Helmich-Paris : MC-RPA, TRAH-(SCF,CASSCF), AVAS, COSX integrals, SCF dyn. polar. 
  Lee Huntington         : MR-EOM, pCC                                   
  Robert Izsak           : Overlap fitted RIJCOSX, COSX-SCS-MP3, EOM     
  Riya Kayal             : Wick's Theorem for AUTO-CI, AUTO-CI UHF-CCSDT 
  Emily Kempfer          : AUTO-CI, RHF CISDT and CCSDT                  
  Christian Kollmar      : KDIIS, OOCD, Brueckner-CCSD(T), CCSD density, CASPT2, CASPT2-K, improved NEVPT2 
  Axel Koslowski         : Symmetry handling                             
  Simone Kossmann        : meta-GGA functionals, TD-DFT gradient, OOMP2, (MP2 Hessian; deprecated post 5.0) 
  Lucas Lang             : DCDCAS                                        
  Marvin Lechner         : AUTO-CI (C++ implementation), FIC-MRCC        
  Spencer Leger          : CASSCF response                               
  Dagmar Lenk            : GEPOL surface, SMD, ORCA-2-JSON               
  Dimitrios Liakos       : Extrapolation schemes; Compound Job, initial MDCI parallelization 
  Dimitrios Manganas     : Further ROCIS development; embedding schemes. LFT, Crystal Embedding 
  Dimitrios Pantazis     : SARC Basis sets                               
  Anastasios Papadopoulos: AUTO-CI, single reference methods and gradients 
  Taras Petrenko         : pre 6.0 DFT Hessian and TD-DFT gradient, (ASA, deprecated), ECA, 1-Electron XAS/XES, NRVS 
  Peter Pinski           : DLPNO-MP2, DLPNO-MP2 Gradient                 
  Christoph Reimann      : Effective Core Potentials                     
  Marius Retegan         : Local ZFS, SOC                                
  Christoph Riplinger    : Optimizer, TS searches, QM/MM, DLPNO-CCSD(T), (RO)-DLPNO pert. Triples 
  Michael Roemelt        : Original ROCIS implementation                 
  Masaaki Saitow         : Open-shell DLPNO-CCSD energy and density      
  Barbara Sandhoefer     : DKH picture change effects                    
  Kantharuban Sivalingam : CASSCF convergence/infrastructure, NEVPT2 and variants, FIC-MRCI 
  Bernardo de Souza      : ESD, SOC TD-DFT                               
  Georgi L. Stoychev     : AutoAux, RI-MP2 NMR, DLPNO-MP2 response, X2C  
  Van Anh Tran           : RI-MP2 g-tensors                              
  Willem Van den Heuvel  : Paramagnetic NMR                              
  Zikuan Wang            : NOTCH, Electric field optimization            
  Frank Wennmohs         : Technical directorship and infrastructure     
  Hang Xu                : AUTO-CI-Response properties                   
                                                                         
[FACCTs GmbH]                                                            
  Markus Bursch, Miquel Garcia-Rates, Christoph Riplinger, Bernardo de Souza, Georgi L. Stoychev 
                                                                 
  APM, Basis sets (HGBS, AHGBS, def-TZVP (Ac-Lr), def2-XVPD (La-Lu)), CI-OPT, improved COSX, DLPNO-Multilevel,           
  DOCKER, DRACO, updates on ESD, GOAT, IRC, LR-CPCM, MBIS, meta-GGA TD-DFT gradient, ML-optimized integration grids, 
  MM, NACMEs, nearIR, NEB, NEB-TS, NL-DFT gradient (VV10), 2- and 3-layer-ONIOM, interface openCOSMO-RS, QMMM,   
  Crystal-QMMM, SF, symmetry and pop. for TD-DFT, r2SCAN hybrids, SOLVATOR                                   
                                                                         
[Other institutions]                                                     
  V. Asgeirsson          : NEB                                           
  Christoph Bannwarth    : sTDA-DFT, sTD-DFT, PBEh-3c, B97-3c, D3        
  Sebastian Ehlert       : rSCAN, r2SCAN, r2SCAN-3c, D4, dhf basis sets  
  Marvin Friede          : D4 for Fr, Ra, Ac-Lr                          
  Lars Goerigk           : TD-DFT with DH, B97 family of functionals     
  Stefan Grimme          : VdW corrections, initial TS optimization, DFT functionals, gCP, sTDA/sTD-DF 
  Waldemar Hujo          : DFT-NL                                        
  H. Jonsson             : NEB                                           
  Holger Kruse           : gCP                                           
  Marcel Mueller         : wB97X-3c, vDZP basis set                      
  Hagen Neugebauer       : wr2SCAN                                       
  Tobias Risthaus        : range-separated hybrid DFT                    
  Lukas Wittmann         : regularized MP2, r2SCAN double-hybrids, wr2SCAN        
                                                                         
We gratefully acknowledge several colleagues who have allowed us to      
interface, adapt or use parts of their codes:                            
  Ed Valeev, F. Pavosevic, A. Kumar             : LibInt (2-el integral package), F12 methods 
  Garnet Chan, S. Sharma, J. Yang, R. Olivares  : DMRG                   
  Ulf Ekstrom                                   : XCFun DFT Library      
  Mihaly Kallay                                 : mrcc  (arbitrary order and MRCC methods)
  Frank Weinhold                                : gennbo (NPA and NBO analysis)           
  Simon Mueller                                 : openCOSMO-RS                            
  Christopher J. Cramer and Donald G. Truhlar   : smd solvation model                     
  S Lehtola, MJT Oliveira, MAL Marques          : LibXC Library                           
  Liviu Ungur et al                             : ANISO software                          


 Your calculation uses the libint2 library for the computation of 2-el integrals
 For citations please refer to: http://libint.valeyev.net

 Your ORCA version has been built with support for libXC version: 6.2.2
 For citations please refer to: https://libxc.gitlab.io

 This ORCA versions uses:
   CBLAS   interface :  Fast vector & matrix operations
   LAPACKE interface :  Fast linear algebra routines
   Shared memory     :  Shared parallel matrices


NOTE: MaxCore=2000 MB was set to SCF,MP2,MDCI,CIPSI,MRCI and CIS
      => If you want to overwrite this, your respective input block should be placed after the MaxCore statement
Your calculation utilizes the atom-pairwise dispersion correction
with the Becke-Johnson damping scheme (D3BJ)


Your calculation utilizes the SMD solvation module
Please cite in your paper:
A.V. Marenich, C.J. Cramer, D.G. Truhlar J. Phys. Chem. B, 113, (2009), 6378 

Warning: RI is on but no J-basis has been assigned. Assigning Def2/J (nothing to worry about!)
================================================================================

----- Orbital basis set information -----
Your calculation utilizes the basis: def2-TZVP
   F. Weigend and R. Ahlrichs, Phys. Chem. Chem. Phys. 7, 3297 (2005).

----- AuxJ basis set information -----
Your calculation utilizes the auxiliary basis: def2/J
   F. Weigend, Phys. Chem. Chem. Phys. 8, 1057 (2006).

================================================================================
                                        WARNINGS
                       Please study these warnings very carefully!
================================================================================


WARNING: Geometry Optimization
  ===> : Switching off AutoStart
         For restart on a previous wavefunction, please use MOREAD

================================================================================
                                       INPUT FILE
================================================================================
NAME = triazole.inp
|  1> ! BLYP DEF2-TZVP D3BJ OPT FREQ CPCM(WATER)
|  2> 
|  3> %maxcore 2000
|  4> 
|  5> %cpcm
|  6>   SMD true
|  7>   SMDsolvent "water"
|  8>   end
|  9> 
| 10> %geom
| 11>   MaxIter 200
| 12>   Calc_Hess true
| 13>   end
| 14> 
| 15> %freq
| 16>   Temp 298.15
| 17>   end
| 18> 
| 19> * xyz 0 1
| 20> N     0.0000    1.2000    0.0000
| 21> N     1.1000    0.6000    0.0000
| 22> N    -1.1000    0.6000    0.0000
| 23> C     0.0000   -0.6000    0.0000
| 24> C     1.2000   -1.2000    0.0000
| 25> H     0.0000    2.2000    0.0000
| 26> H     2.1000    1.1000    0.0000
| 27> H    -2.1000    1.1000    0.0000
| 28> **                         ****END OF INPUT****
================================================================================

                       *****************************
                       * Geometry Optimization Run *
                       *****************************

Geometry optimization settings:
Update method            Update   .... BFGS
Choice of coordinates    CoordSys .... (2022) Redundant Internals
Initial Hessian          InHess   .... Almloef's Model
Max. no of cycles        MaxIter  .... 200

Convergence Tolerances:
Energy Change            TolE     ....  5.0000e-06 Eh
Max. Gradient            TolMAXG  ....  3.0000e-04 Eh/bohr
RMS Gradient             TolRMSG  ....  1.0000e-04 Eh/bohr
Max. Displacement        TolMAXD  ....  4.0000e-03 bohr
RMS Displacement         TolRMSD  ....  2.0000e-03 bohr
Strict Convergence                .... False

------------------------------------------------------------------------------
                        ORCA OPTIMIZATION COORDINATE SETUP
------------------------------------------------------------------------------

The optimization will be done in redundant internal coordinates (2022)
Making redundant internal coordinates   ...  (2022 redundants) done
Evaluating the initial hessian          ...  (Is done on the fly) done
Evaluating the coordinates              ...  done
Calculating the B-matrix                .... done
Calculating the G-matrix                .... done
Diagonalizing the G-matrix              .... done
The first mode is                       ....   44
The number of degrees of freedom        ....   18

    -----------------------------------------------------------------
                    Redundant Internal Coordinates


    -----------------------------------------------------------------
         Definition                    Initial Value    d2E/dq (diagonal element)
    -----------------------------------------------------------------
      1. B(N   1,N   0)                  1.2530         0.000000   
      2. B(N   2,N   0)                  1.2530         0.000000   
      3. B(C   3,N   0)                  1.8000         0.000000   
      4. B(C   3,N   2)                  1.6279         0.000000   
      5. B(C   3,N   1)                  1.6279         0.000000   
      6. B(C   4,C   3)                  1.3416         0.000000   
      7. B(C   4,N   1)                  1.8028         0.000000   
      8. B(H   5,N   0)                  1.0000         0.000000   
      9. B(H   6,N   1)                  1.1180         0.000000   
     10. B(H   7,N   2)                  1.1180         0.000000   
     11. A(N   2,N   0,C   3)           61.3895         0.000000   
     12. A(N   1,N   0,C   3)           61.3895         0.000000   
     13. A(N   1,N   0,H   5)          118.6105         0.000000   
     14. A(N   2,N   0,H   5)          118.6105         0.000000   
     15. A(N   1,N   0,N   2)          122.7791         0.000000   
     16. A(C   3,N   1,H   6)          159.0755         0.000000   
     17. A(C   3,N   1,C   4)           45.6903         0.000000   
     18. A(N   0,N   1,C   4)          121.7903         0.000000   
     19. A(N   0,N   1,H   6)          124.8245         0.000000   
     20. A(C   4,N   1,H   6)          113.3852         0.000000   
     21. A(N   0,N   1,C   3)           76.1000         0.000000   
     22. A(N   0,N   2,C   3)           76.1000         0.000000   
     23. A(C   3,N   2,H   7)          159.0755         0.000000   
     24. A(N   0,N   2,H   7)          124.8245         0.000000   
     25. A(N   0,C   3,N   2)           42.5104         0.000000   
     26. A(N   2,C   3,C   4)          159.0755         0.000000   
     27. A(N   1,C   3,C   4)           74.0546         0.000000   
     28. A(N   0,C   3,C   4)          116.5651         0.000000   
     29. A(N   0,C   3,N   1)           42.5104         0.000000   
     30. A(N   1,C   3,N   2)           85.0209         0.000000   
     31. A(N   1,C   4,C   3)           60.2551         0.000000   
     32. D(C   4,N   1,N   0,N   2)      0.0000         0.000000   
     33. D(H   6,N   1,N   0,N   2)    180.0000         0.000000   
     34. D(C   3,N   1,N   0,N   2)      0.0000         0.000000   
     35. D(C   4,N   1,N   0,H   5)    180.0000         0.000000   
     36. D(C   3,N   1,N   0,H   5)    180.0000         0.000000   
     37. D(C   4,N   1,N   0,C   3)      0.0000         0.000000   
     38. D(C   3,N   2,N   0,N   1)      0.0000         0.000000   
     39. D(H   7,N   2,N   0,H   5)      0.0000         0.000000   
     40. D(H   7,N   2,N   0,C   3)    180.0000         0.000000   
     41. D(H   7,N   2,N   0,N   1)    180.0000         0.000000   
     42. D(C   3,N   2,N   0,H   5)    180.0000         0.000000   
     43. D(C   4,C   3,N   0,N   1)      0.0000         0.000000   
     44. D(N   2,C   3,N   0,N   1)    180.0000         0.000000   
     45. D(C   4,C   3,N   0,N   2)    180.0000         0.000000   
     46. D(N   1,C   3,N   2,H   7)    180.0000         0.000000   
     47. D(N   1,C   3,N   2,N   0)      0.0000         0.000000   
     48. D(N   1,C   3,N   0,N   2)    180.0000         0.000000   
     49. D(C   4,C   3,N   1,H   6)      0.0000         0.000000   
     50. D(C   4,C   3,N   1,N   0)    180.0000         0.000000   
     51. D(N   2,C   3,N   1,H   6)    180.0000         0.000000   
     52. D(N   2,C   3,N   1,C   4)    180.0000         0.000000   
     53. D(N   0,C   3,N   2,H   7)    180.0000         0.000000   
     54. D(N   2,C   3,N   1,N   0)      0.0000         0.000000   
     55. D(N   0,C   3,N   1,H   6)    180.0000         0.000000   
     56. D(C   4,C   3,N   2,N   0)      0.0000         0.000000   
     57. D(C   4,C   3,N   2,H   7)    180.0000         0.000000   
     58. D(N   0,C   3,N   1,C   4)    180.0000         0.000000   
     59. D(N   1,C   4,C   3,N   2)      0.0000         0.000000   
     60. D(N   1,C   4,C   3,N   0)      0.0000         0.000000   
     61. D(C   3,C   4,N   1,H   6)    180.0000         0.000000   
     62. D(C   3,C   4,N   1,N   0)      0.0000         0.000000   
    -----------------------------------------------------------------

Number of atoms                         .... 8
Number of degrees of freedom            .... 62


         *************************************************************
         *                GEOMETRY OPTIMIZATION CYCLE   1            *
         *************************************************************
---------------------------------
CARTESIAN COORDINATES (ANGSTROEM)
---------------------------------
  N      0.000000    1.200000    0.000000
  N      1.100000    0.600000    0.000000
  N     -1.100000    0.600000    0.000000
  C      0.000000   -0.600000    0.000000
  C      1.200000   -1.200000    0.000000
  H      0.000000    2.200000    0.000000
  H      2.100000    1.100000    0.000000
  H     -2.100000    1.100000    0.000000

----------------------------
CARTESIAN COORDINATES (A.U.)
----------------------------
  NO LB      ZA    FRAG     MASS         X           Y           Z
   0 N     7.0000    0    14.007    0.000000    2.267671    0.000000
   1 N     7.0000    0    14.007    2.078699    1.133836    0.000000
   2 N     7.0000    0    14.007   -2.078699    1.133836    0.000000
   3 C     6.0000    0    12.011    0.000000   -1.133836    0.000000
   4 C     6.0000    0    12.011    2.267671   -2.267671    0.000000
   5 H     1.0000    0     1.008    0.000000    4.157397    0.000000
   6 H     1.0000    0     1.008    3.968425    2.078699    0.000000
   7 H     1.0000    0     1.008   -3.968425    2.078699    0.000000

--------------------------------
INTERNAL COORDINATES (ANGSTROEM)
--------------------------------
 N      0   0   0     0.000000000000     0.00000000     0.00000000
 N      1   0   0     1.252996408614     0.00000000     0.00000000
 N      1   2   0     1.252996408614   122.77908067     0.00000000
 C      2   1   3     1.627882059610    76.10001259     0.00000000
 C      4   2   1     1.341640786500    74.05460410   180.00000000
 H      1   2   3     1.000000000000   118.61045967   180.00000000
 H      2   1   3     1.118033988750   124.82448916   180.00000000
 H      3   1   2     1.118033988750   124.82448916   180.00000000

---------------------------
INTERNAL COORDINATES (A.U.)
---------------------------
 N      0   0   0     0.000000000000     0.00000000     0.00000000
 N      1   0   0     2.367820059068     0.00000000     0.00000000
 N      1   2   0     2.367820059068   122.77908067     0.00000000
 C      2   1   3     3.076251270987    76.10001259     0.00000000
 C      4   2   1     2.535333656583    74.05460410   180.00000000
 H      1   2   3     1.889726133921   118.61045967   180.00000000
 H      2   1   3     2.112778047153   124.82448916   180.00000000
 H      3   1   2     2.112778047153   124.82448916   180.00000000

---------------------
BASIS SET INFORMATION
---------------------
There are 3 groups of distinct atoms

 Group   1 Type N   : 11s6p2d1f contracted to 5s3p2d1f pattern {62111/411/11/1}
 Group   2 Type C   : 11s6p2d1f contracted to 5s3p2d1f pattern {62111/411/11/1}
 Group   3 Type H   : 5s1p contracted to 3s1p pattern {311/1}

Atom   0N    basis set group =>   1
Atom   1N    basis set group =>   1
Atom   2N    basis set group =>   1
Atom   3C    basis set group =>   2
Atom   4C    basis set group =>   2
Atom   5H    basis set group =>   3
Atom   6H    basis set group =>   3
Atom   7H    basis set group =>   3
---------------------------------
AUXILIARY/J BASIS SET INFORMATION
---------------------------------
There are 3 groups of distinct atoms

 Group   1 Type N   : 12s5p4d2f1g contracted to 6s4p3d1f1g pattern {711111/2111/211/2/1}
 Group   2 Type C   : 12s5p4d2f1g contracted to 6s4p3d1f1g pattern {711111/2111/211/2/1}
 Group   3 Type H   : 5s2p1d contracted to 3s1p1d pattern {311/2/1}

Atom   0N    basis set group =>   1
Atom   1N    basis set group =>   1
Atom   2N    basis set group =>   1
Atom   3C    basis set group =>   2
Atom   4C    basis set group =>   2
Atom   5H    basis set group =>   3
Atom   6H    basis set group =>   3
Atom   7H    basis set group =>   3
------------------------------------------------------------------------------
                             ORCA STARTUP CALCULATIONS
                           -- RI-GTO INTEGRALS CHOSEN --
------------------------------------------------------------------------------
------------------------------------------------------------------------------
                   ___                                                        
                  /   \      - P O W E R E D   B Y -                         
                 /     \                                                     
                 |  |  |   _    _      __       _____    __    __             
                 |  |  |  | |  | |    /  \     |  _  \  |  |  /  |          
                  \  \/   | |  | |   /    \    | | | |  |  | /  /          
                 / \  \   | |__| |  /  /\  \   | |_| |  |  |/  /          
                |  |  |   |  __  | /  /__\  \  |    /   |      \           
                |  |  |   | |  | | |   __   |  |    \   |  |\   \          
                \     /   | |  | | |  |  |  |  | |\  \  |  | \   \       
                 \___/    |_|  |_| |__|  |__|  |_| \__\ |__|  \__/        
                                                                              
                      - O R C A' S   B I G   F R I E N D -                    
                                      &                                       
                       - I N T E G R A L  F E E D E R -                       
                                                                              
 v1 FN, 2020, v2 2021, v3 2022-2024                                           
------------------------------------------------------------------------------


----------------------
SHARK INTEGRAL PACKAGE
----------------------

Number of atoms                             ...      8
Number of basis functions                   ...    173
Number of shells                            ...     67
Maximum angular momentum                    ...      3
Integral batch strategy                     ... SHARK/LIBINT Hybrid
RI-J (if used) integral strategy            ... SPLIT-RIJ (Revised 2003 algorithm where possible)
Printlevel                                  ...      1
Contraction scheme used                     ... SEGMENTED contraction
Prescreening option                         ... SCHWARTZ
   Thresh                                   ... 2.500e-11
   Tcut                                     ... 2.500e-12
   Tpresel                                  ... 2.500e-12 
Coulomb Range Separation                    ... NOT USED
Exchange Range Separation                   ... NOT USED
Multipole approximations                    ... NOT USED
Finite Nucleus Model                        ... NOT USED
CABS basis                                  ... NOT available
Auxiliary Coulomb fitting basis             ... AVAILABLE
   # of basis functions in Aux-J            ...    278
   # of shells in Aux-J                     ...     90
   Maximum angular momentum in Aux-J        ...      4
Auxiliary J/K fitting basis                 ... NOT available
Auxiliary Correlation fitting basis         ... NOT available
Auxiliary 'external' fitting basis          ... NOT available

Checking pre-screening integrals            ... done (  0.0 sec) Dimension = 67
Check shell pair data                       ... done (  0.0 sec)
Shell pair information
Shell pair cut-off parameter TPreSel        ...   2.5e-12
Total number of shell pairs                 ...      2278
Shell pairs after pre-screening             ...      2226
Total number of primitive shell pairs       ...      7140
Primitive shell pairs kept                  ...      5675
          la=0 lb=0:    558 shell pairs
          la=1 lb=0:    602 shell pairs
          la=1 lb=1:    171 shell pairs
          la=2 lb=0:    335 shell pairs
          la=2 lb=1:    180 shell pairs
          la=2 lb=2:     55 shell pairs
          la=3 lb=0:    170 shell pairs
          la=3 lb=1:     90 shell pairs
          la=3 lb=2:     50 shell pairs
          la=3 lb=3:     15 shell pairs

Calculating one electron integrals          ... done (  0.0 sec)
Calculating RI/J V-Matrix + Cholesky decomp.... done (  0.0 sec)
Calculating Nuclear repulsion               ... done (  0.0 sec) ENN=    162.218043093250 Eh

Diagonalization of the overlap matrix:
Smallest eigenvalue                        ... 1.495e-04
Time for diagonalization                   ...    0.001 sec
Threshold for overlap eigenvalues          ... 1.000e-07
Number of eigenvalues below threshold      ... 0
Time for construction of square roots      ...    0.001 sec
Total time needed                          ...    0.004 sec

-------------------
DFT GRID GENERATION
-------------------

General Integration Accuracy     IntAcc      ... 4.388
Radial Grid Type                 RadialGrid  ... OptM3 with GC (2021)
Angular Grid (max. ang.)         AngularGrid ... 4 (Lebedev-302)
Angular grid pruning method      GridPruning ... 4 (adaptive)
Weight generation scheme         WeightScheme... mBecke (2022)
Basis function cutoff            BFCut       ... 1.0000e-11
Integration weight cutoff        WCut        ... 1.0000e-14
Partially contracted basis set               ... off
Rotationally invariant grid construction     ... off
Angular grids for H and He will be reduced by one unit

Total number of grid points                  ...    40145
Total number of batches                      ...      630
Average number of points per batch           ...       63
Average number of grid points per atom       ...     5018
Initializing property integral containers    ... done (  0.0 sec)

SHARK setup successfully completed in   0.2 seconds

Maximum memory used throughout the entire STARTUP-calculation: 21.8 MB
-------------------------------------------------------------------------------
                                 ORCA GUESS
                   Start orbitals & Density for SCF / CASSCF
-------------------------------------------------------------------------------

------------
SCF SETTINGS
------------
Hamiltonian:
 Density Functional     Method          .... DFT(GTOs)
 Exchange Functional    Exchange        .... B88
   X-Alpha parameter    XAlpha          ....  0.666667
   Becke's b parameter  XBeta           ....  0.004200
 Correlation Functional Correlation     .... LYP
 Gradients option       PostSCFGGA      .... off
   NL short-range parameter             ....  4.000000
 RI-approximation to the Coulomb term is turned on
   Number of AuxJ basis functions       .... 278


General Settings:
 Integral files         IntName         .... triazole
 Hartree-Fock type      HFTyp           .... RHF
 Total Charge           Charge          ....    0
 Multiplicity           Mult            ....    1
 Number of Electrons    NEL             ....   36
 Basis Dimension        Dim             ....  173
 Nuclear Repulsion      ENuc            ....    162.2180430933 Eh

Convergence Acceleration:
 AO-DIIS                CNVDIIS         .... on
   Start iteration      DIISMaxIt       ....    12
   Startup error        DIISStart       ....  0.200000
   # of expansion vecs  DIISMaxEq       ....     5
   Bias factor          DIISBfac        ....   1.050
   Max. coefficient     DIISMaxC        ....  10.000
 MO-DIIS                CNVKDIIS        .... off
 Trust-Rad. Augm. Hess. CNVTRAH         .... auto
   Auto Start mean grad. ratio tolernc. ....  1.125000
   Auto Start start iteration           ....    50
   Auto Start num. interpolation iter.  ....    10
   Max. Number of Micro iterations      ....    24
   Max. Number of Macro iterations      .... Maxiter - #DIIS iter
   Number of Davidson start vectors     ....     2
   Converg. threshold    (grad. norm)   ....   1.000e-05
   Grad. Scal. Fac. for Micro threshold ....   0.100
   Minimum threshold for Micro iter.    ....   1.000e-02
   NR start threshold (gradient norm)   ....   1.000e-04
   Initial trust radius                 ....   0.400
   Minimum AH scaling param. (alpha)    ....   1.000
   Maximum AH scaling param. (alpha)    .... 1000.000
   Quad. conv. algorithm                .... NR
   White noise on init. David. guess    .... on
   Maximum white noise                  ....   0.010
   Pseudo random numbers                .... off
   Inactive MOs                         .... canonical
   Orbital update algorithm             .... Taylor
   Preconditioner                       .... Diag
   Full preconditioner red. dimension   ....   250
 SOSCF                  CNVSOSCF        .... on
   Start iteration      SOSCFMaxIt      ....   150
   Startup grad/error   SOSCFStart      ....  0.003300
   Hessian update       SOSCFHessUp     .... L-BFGS
 Level Shifting         CNVShift        .... on
   Level shift para.    LevelShift      ....    0.2500
   Turn off err/grad.   ShiftErr        ....    0.0010
 Zerner damping         CNVZerner       .... off
 Static damping         CNVDamp         .... on
   Fraction old density DampFac         ....    0.7000
   Max. Damping (<1)    DampMax         ....    0.9800
   Min. Damping (>=0)   DampMin         ....    0.0000
   Turn off err/grad.   DampErr         ....    0.1000

SCF Procedure:
 Maximum # iterations   MaxIter         ....   125
 SCF integral mode      SCFMode         .... Direct
   Integral package                     .... SHARK and LIBINT hybrid scheme
 Reset frequency        DirectResetFreq ....    20
 Integral Threshold     Thresh          ....  2.500e-11 Eh
 Primitive CutOff       TCut            ....  2.500e-12 Eh

Convergence Tolerance:
 Convergence Check Mode ConvCheckMode   .... Total+1el-Energy
 Convergence forced     ConvForced      .... 0
 Energy Change          TolE            ....  1.000e-08 Eh
 1-El. energy change                    ....  1.000e-05 Eh
 Orbital Gradient       TolG            ....  1.000e-05
 Orbital Rotation angle TolX            ....  1.000e-05
 DIIS Error             TolErr          ....  5.000e-07

------------------------------
INITIAL GUESS: MODEL POTENTIAL
------------------------------
Loading Hartree-Fock densities                     ... done
Calculating cut-offs                               ... done
Initializing the effective Hamiltonian             ... done
Setting up the integral package (SHARK)            ... done
Starting the Coulomb interaction                   ... done (   0.0 sec)
Making the grid                                    ... done (   0.1 sec)
Mapping shells                                     ... done
Starting the XC term evaluation                    ... done (   0.1 sec)
  promolecular density results
     # of electrons  =     35.998458340
     EX              =    -30.842425941
     EC              =     -1.235525066
     EX+EC           =    -32.077951007
Transforming the Hamiltonian                       ... done (   0.0 sec)
Diagonalizing the Hamiltonian                      ... done (   0.0 sec)
Back transforming the eigenvectors                 ... done (   0.0 sec)
Now organizing SCF variables                       ... done
                      ------------------
                      INITIAL GUESS DONE (   0.2 sec)
                      ------------------
             **** ENERGY FILE WAS UPDATED (triazole.en.tmp) ****
Finished Guess after   0.2 sec
Maximum memory used throughout the entire GUESS-calculation: 14.2 MB

-------------------------------------------------------------------------------------------
                                      ORCA LEAN-SCF
                              memory conserving SCF solver
-------------------------------------------------------------------------------------------

--------------------
CPCM SOLVATION MODEL
--------------------
CPCM parameters:
  Epsilon                                         ...      78.3550
  Refrac                                          ...       1.3328
  Rsolv                                           ...       1.3000
  Surface type                                    ... GAUSSIAN VDW
  Discretization scheme                           ... Constant charge density
    Threshold for H atoms                         ...       5.0000 (charges/Ang^2)
    Threshold for non-H atoms                     ...       5.0000 (charges/Ang^2)
  Epsilon function type                           ...         CPCM
Solvent:                                          ... WATER
SMD-CDS solvent descriptors:
  Soln                                            ...       1.3328
  Soln25                                          ...       1.3323
  Sola                                            ...       0.0000
  Solb                                            ...       0.0000
  Solg                                            ...       0.0000
  Solc                                            ...       0.0000
  Solh                                            ...       0.0000
Radii:
  Scheme                                          ... Element-dependent radii
  Radius for N  used is    3.5716 Bohr (=   1.8900 Ang.)
  Radius for C  used is    3.4960 Bohr (=   1.8500 Ang.)
  Radius for H  used is    2.2677 Bohr (=   1.2000 Ang.)
Calculating surface                               ...        done! (  0.0s)
Cavity surface points                             ...          709
Cavity Volume                                     ...     528.8187
Cavity Surface-area                               ...     343.7441
Calculating surface distance matrix               ...        done! (  0.0s)
Performing Cholesky decomposition & store         ...        done! (  0.0s)
Overall time for CPCM initialization              ...                 0.0s

----------------------------------------D-I-I-S--------------------------------------------
Iteration    Energy (Eh)           Delta-E    RMSDP     MaxDP     DIISErr   Damp  Time(sec)
-------------------------------------------------------------------------------------------
               ***  Starting incremental Fock matrix formation  ***
    1    -241.6759906307631525     0.00e+00  5.74e-03  3.11e-01  1.35e-01  0.700   0.5
Warning: op=0 Small HOMO/LUMO gap (  -0.027) - skipping pre-diagonalization
         Will do a full diagonalization
    2    -241.7348717503678301    -5.89e-02  5.91e-03  3.38e-01  5.81e-02  0.700   0.5
                               ***Turning on AO-DIIS***
    3    -241.7552283742329848    -2.04e-02  2.37e-03  1.28e-01  2.43e-02  0.700   0.5
    4    -241.7660353987990618    -1.08e-02  2.48e-03  9.27e-02  1.45e-02  0.000   0.5
    5    -241.7919978190116979    -2.60e-02  1.74e-03  1.04e-01  1.20e-02  0.000   0.5
    6    -241.7929532339699392    -9.55e-04  8.54e-04  4.73e-02  4.36e-03  0.000   0.5
                              *** Initializing SOSCF ***
---------------------------------------S-O-S-C-F--------------------------------------
Iteration    Energy (Eh)           Delta-E    RMSDP     MaxDP     MaxGrad    Time(sec)
--------------------------------------------------------------------------------------
    7    -241.7931505535254644    -1.97e-04  4.43e-04  2.29e-02  1.92e-03     0.5
               *** Restarting incremental Fock matrix formation ***
    8    -241.7931942311639943    -4.37e-05  3.72e-04  1.39e-02  7.89e-04     0.5
    9    -241.7932143774642384    -2.01e-05  4.53e-04  1.89e-02  6.47e-04     0.4
   10    -241.7932289762941593    -1.46e-05  9.30e-05  3.25e-03  2.44e-04     0.4
   11    -241.7932283202481756     6.56e-07  6.98e-05  4.02e-03  5.82e-04     0.4
   12    -241.7932312980246081    -2.98e-06  5.15e-05  2.22e-03  1.03e-04     0.4
   13    -241.7932314343225642    -1.36e-07  3.51e-05  1.42e-03  1.44e-04     0.4
   14    -241.7932319929504672    -5.59e-07  2.62e-05  7.80e-04  3.35e-05     0.4
   15    -241.7932320145699521    -2.16e-08  1.77e-05  5.71e-04  6.22e-05     0.4
   16    -241.7932320601002800    -4.55e-08  3.19e-06  9.03e-05  9.16e-06     0.4
   17    -241.7932320647081781    -4.61e-09  1.09e-06  4.28e-05  2.83e-06     0.4
                 **** Energy Check signals convergence ****

               *****************************************************
               *                     SUCCESS                       *
               *           SCF CONVERGED AFTER  17 CYCLES          *
               *****************************************************


SMD CDS free energy correction energy :                 3.81970     Kcal/mol
Total Energy after SMD CDS correction =              -241.787144983 Eh
             **** ENERGY FILE WAS UPDATED (triazole.en.tmp) ****

----------------
TOTAL SCF ENERGY
----------------

Total Energy       :       -241.78714498277492 Eh           -6579.36270 eV

Components:
Nuclear Repulsion  :        162.21804309325026 Eh            4414.17737 eV
Electronic Energy  :       -403.95144107982884 Eh          -10992.07754 eV
One Electron Energy:       -646.82120090398189 Eh          -17600.89969 eV
Two Electron Energy:        242.86975982415305 Eh            6608.82215 eV
CPCM Dielectric    :         -0.05983407812961 Eh              -1.62817 eV
SMD CDS (Gcds)     :          0.00608708193327 Eh               0.16564 eV

Virial components:
Potential Energy   :       -483.58357727415364 Eh          -13158.97813 eV
Kinetic Energy     :        241.79643229137872 Eh            6579.61542 eV
Virial Ratio       :          1.99996159038198

DFT components:
N(Alpha)           :       17.999993054732 electrons
N(Beta)            :       17.999993054732 electrons
N(Total)           :       35.999986109464 electrons
E(X)               :      -31.232639779630 Eh       
E(C)               :       -1.239654497976 Eh       
E(XC)              :      -32.472294277606 Eh       

CPCM Solvation Model Properties:
Surface-charge          :         -0.04965068157270
Corrected charge        :         -0.00000000000000
Outlying charge corr.   :          0.00023422503552 Eh               0.00637 eV
Free-energy (cav+disp)  :          0.00608708193327 Eh               0.16564 eV

---------------
SCF CONVERGENCE
---------------

  Last Energy change         ...    4.6079e-09  Tolerance :   1.0000e-08
  Last MAX-Density change    ...    4.2765e-05  Tolerance :   1.0000e-07
  Last RMS-Density change    ...    1.0909e-06  Tolerance :   5.0000e-09
  Last DIIS Error            ...    1.9181e-03  Tolerance :   5.0000e-07
  Last Orbital Gradient      ...    2.8281e-06  Tolerance :   1.0000e-05
  Last Orbital Rotation      ...    1.2214e-05  Tolerance :   1.0000e-05


----------------
ORBITAL ENERGIES
----------------

  NO   OCC          E(Eh)            E(eV) 
   0   2.0000     -14.171965      -385.6388 
   1   2.0000     -14.109435      -383.9372 
   2   2.0000     -14.068425      -382.8213 
   3   2.0000      -9.938147      -270.4307 
   4   2.0000      -9.902277      -269.4547 
   5   2.0000      -1.097889       -29.8751 
   6   2.0000      -0.875219       -23.8159 
   7   2.0000      -0.728752       -19.8303 
   8   2.0000      -0.613057       -16.6821 
   9   2.0000      -0.592448       -16.1213 
  10   2.0000      -0.514179       -13.9915 
  11   2.0000      -0.478661       -13.0250 
  12   2.0000      -0.422077       -11.4853 
  13   2.0000      -0.347660        -9.4603 
  14   2.0000      -0.278707        -7.5840 
  15   2.0000      -0.256444        -6.9782 
  16   2.0000      -0.224792        -6.1169 
  17   2.0000      -0.082916        -2.2563 
  18   0.0000      -0.087711        -2.3867 
  19   0.0000      -0.054027        -1.4702 
  20   0.0000      -0.017019        -0.4631 
  21   0.0000      -0.000808        -0.0220 
  22   0.0000       0.033173         0.9027 
  23   0.0000       0.047279         1.2865 
  24   0.0000       0.063754         1.7348 
  25   0.0000       0.120829         3.2879 
  26   0.0000       0.168712         4.5909 
  27   0.0000       0.176660         4.8072 
  28   0.0000       0.191835         5.2201 
*Only the first 10 virtual orbitals were printed.

                    ********************************
                    * MULLIKEN POPULATION ANALYSIS *
                    ********************************

-----------------------
MULLIKEN ATOMIC CHARGES
-----------------------
   0 N :    0.132746
   1 N :   -0.181565
   2 N :   -0.035767
   3 C :   -0.299012
   4 C :   -0.406085
   5 H :    0.271304
   6 H :    0.384274
   7 H :    0.134105
Sum of atomic charges:   -0.0000000

--------------------------------
MULLIKEN REDUCED ORBITAL CHARGES
--------------------------------
  0 N s       :     3.335456  s :     3.335456
      pz      :     1.311013  p :     3.359681
      px      :     0.974939
      py      :     1.073730
      dz2     :     0.006202  d :     0.162350
      dxz     :     0.050057
      dyz     :     0.011269
      dx2y2   :     0.050476
      dxy     :     0.044346
      f0      :     0.001487  f :     0.009765
      f+1     :     0.001074
      f-1     :     0.000977
      f+2     :     0.000111
      f-2     :     0.001906
      f+3     :     0.002582
      f-3     :     0.001628

  1 N s       :     3.549442  s :     3.549442
      pz      :     1.393410  p :     3.531777
      px      :     0.971800
      py      :     1.166567
      dz2     :     0.008514  d :     0.093474
      dxz     :     0.012213
      dyz     :     0.018439
      dx2y2   :     0.027620
      dxy     :     0.026687
      f0      :     0.000979  f :     0.006872
      f+1     :     0.001031
      f-1     :     0.000623
      f+2     :     0.000500
      f-2     :     0.000795
      f+3     :     0.001342
      f-3     :     0.001602

  2 N s       :     3.517606  s :     3.517606
      pz      :     1.328139  p :     3.444473
      px      :     0.923532
      py      :     1.192802
      dz2     :     0.010603  d :     0.067697
      dxz     :     0.011904
      dyz     :     0.008565
      dx2y2   :     0.012665
      dxy     :     0.023960
      f0      :     0.000879  f :     0.005991
      f+1     :     0.000940
      f-1     :     0.000394
      f+2     :     0.000398
      f-2     :     0.000774
      f+3     :     0.001191
      f-3     :     0.001415

  3 C s       :     3.630539  s :     3.630539
      pz      :     1.010912  p :     2.569130
      px      :     0.958848
      py      :     0.599371
      dz2     :     0.005856  d :     0.087578
      dxz     :     0.021599
      dyz     :     0.010023
      dx2y2   :     0.014358
      dxy     :     0.035743
      f0      :     0.001621  f :     0.011764
      f+1     :     0.000959
      f-1     :     0.001037
      f+2     :     0.000640
      f-2     :     0.002225
      f+3     :     0.003060
      f-3     :     0.002222

  4 C s       :     3.858453  s :     3.858453
      pz      :     0.760324  p :     2.489111
      px      :     0.988877
      py      :     0.739909
      dz2     :     0.002943  d :     0.054343
      dxz     :     0.009966
      dyz     :     0.007805
      dx2y2   :     0.022909
      dxy     :     0.010721
      f0      :     0.000749  f :     0.004178
      f+1     :     0.000100
      f-1     :     0.000498
      f+2     :     0.000297
      f-2     :     0.000479
      f+3     :     0.000994
      f-3     :     0.001061

  5 H s       :     0.690948  s :     0.690948
      pz      :     0.007933  p :     0.037748
      px      :     0.006416
      py      :     0.023400

  6 H s       :     0.585398  s :     0.585398
      pz      :     0.006591  p :     0.030327
      px      :     0.016259
      py      :     0.007478

  7 H s       :     0.834434  s :     0.834434
      pz      :     0.005998  p :     0.031461
      px      :     0.015678
      py      :     0.009785



                     *******************************
                     * LOEWDIN POPULATION ANALYSIS *
                     *******************************

----------------------
LOEWDIN ATOMIC CHARGES
----------------------
   0 N :    0.088279
   1 N :    0.135634
   2 N :    0.033943
   3 C :   -0.542826
   4 C :   -0.328558
   5 H :    0.201935
   6 H :    0.287107
   7 H :    0.124488

-------------------------------
LOEWDIN REDUCED ORBITAL CHARGES
-------------------------------
  0 N s       :     2.884017  s :     2.884017
      pz      :     1.205033  p :     3.421517
      px      :     1.107326
      py      :     1.109158
      dz2     :     0.029317  d :     0.563797
      dxz     :     0.147432
      dyz     :     0.022438
      dx2y2   :     0.202940
      dxy     :     0.161670
      f0      :     0.002663  f :     0.042390
      f+1     :     0.004711
      f-1     :     0.002686
      f+2     :     0.000691
      f-2     :     0.011039
      f+3     :     0.014219
      f-3     :     0.006380

  1 N s       :     3.023301  s :     3.023301
      pz      :     1.291000  p :     3.520550
      px      :     1.077607
      py      :     1.151944
      dz2     :     0.039185  d :     0.290750
      dxz     :     0.033373
      dyz     :     0.044652
      dx2y2   :     0.077080
      dxy     :     0.096460
      f0      :     0.002419  f :     0.029766
      f+1     :     0.003415
      f-1     :     0.002034
      f+2     :     0.001934
      f-2     :     0.004499
      f+3     :     0.007062
      f-3     :     0.008404

  2 N s       :     3.155910  s :     3.155910
      pz      :     1.240362  p :     3.515034
      px      :     1.067805
      py      :     1.206867
      dz2     :     0.040663  d :     0.266378
      dxz     :     0.030823
      dyz     :     0.026158
      dx2y2   :     0.047153
      dxy     :     0.121582
      f0      :     0.002447  f :     0.028736
      f+1     :     0.003486
      f-1     :     0.001486
      f+2     :     0.001496
      f-2     :     0.004642
      f+3     :     0.007977
      f-3     :     0.007202

  3 C s       :     3.008550  s :     3.008550
      pz      :     0.935114  p :     2.835606
      px      :     1.131214
      py      :     0.769277
      dz2     :     0.066375  d :     0.628126
      dxz     :     0.063589
      dyz     :     0.040233
      dx2y2   :     0.131865
      dxy     :     0.326065
      f0      :     0.003658  f :     0.070544
      f+1     :     0.006577
      f-1     :     0.006804
      f+2     :     0.002926
      f-2     :     0.008783
      f+3     :     0.021571
      f-3     :     0.020228

  4 C s       :     3.346482  s :     3.346482
      pz      :     0.760859  p :     2.746561
      px      :     1.208693
      py      :     0.777009
      dz2     :     0.035661  d :     0.205199
      dxz     :     0.026890
      dyz     :     0.021176
      dx2y2   :     0.082863
      dxy     :     0.038609
      f0      :     0.003001  f :     0.030316
      f+1     :     0.002863
      f-1     :     0.003600
      f+2     :     0.002024
      f-2     :     0.002779
      f+3     :     0.005280
      f-3     :     0.010769

  5 H s       :     0.689220  s :     0.689220
      pz      :     0.023584  p :     0.108846
      px      :     0.017966
      py      :     0.067295

  6 H s       :     0.624605  s :     0.624605
      pz      :     0.016817  p :     0.088288
      px      :     0.047906
      py      :     0.023565

  7 H s       :     0.769094  s :     0.769094
      pz      :     0.015468  p :     0.106418
      px      :     0.054119
      py      :     0.036832



                      *****************************
                      * MAYER POPULATION ANALYSIS *
                      *****************************

  NA   - Mulliken gross atomic population
  ZA   - Total nuclear charge
  QA   - Mulliken gross atomic charge
  VA   - Mayer's total valence
  BVA  - Mayer's bonded valence
  FA   - Mayer's free valence

  ATOM       NA         ZA         QA         VA         BVA        FA
  0 N      6.8673     7.0000     0.1327     3.7309     3.7309    -0.0000
  1 N      7.1816     7.0000    -0.1816     3.1828     3.1828    -0.0000
  2 N      7.0358     7.0000    -0.0358     2.5405     2.5405    -0.0000
  3 C      6.2990     6.0000    -0.2990     3.1370     3.1370    -0.0000
  4 C      6.4061     6.0000    -0.4061     2.6206     2.6206    -0.0000
  5 H      0.7287     1.0000     0.2713     0.9485     0.9485     0.0000
  6 H      0.6157     1.0000     0.3843     0.8519     0.8519    -0.0000
  7 H      0.8659     1.0000     0.1341     1.0650     1.0650     0.0000

  Mayer bond orders larger than 0.100000
B(  0-N ,  1-N ) :   1.3048 B(  0-N ,  2-N ) :   1.3293 B(  0-N ,  4-C ) :   0.1317 
B(  0-N ,  5-H ) :   0.8619 B(  1-N ,  2-N ) :   0.2324 B(  1-N ,  3-C ) :   0.5166 
B(  1-N ,  4-C ) :   0.2656 B(  1-N ,  6-H ) :   0.7720 B(  2-N ,  3-C ) :   0.2536 
B(  2-N ,  7-H ) :   0.6399 B(  3-C ,  4-C ) :   2.0253 B(  3-C ,  7-H ) :   0.2039 


-------
TIMINGS
-------

Total SCF time: 0 days 0 hours 0 min 7 sec 

Total time                  ....       7.577 sec
Sum of individual times     ....       7.559 sec  ( 99.8%)

SCF preparation             ....       0.041 sec  (  0.5%)
Fock matrix formation       ....       7.410 sec  ( 97.8%)
  Startup                   ....       0.003 sec  (  0.0% of F)
  Split-RI-J                ....       1.211 sec  ( 16.3% of F)
  XC integration            ....       4.551 sec  ( 61.4% of F)
    Basis function eval.    ....       1.357 sec  ( 29.8% of XC)
    Density eval.           ....       0.971 sec  ( 21.3% of XC)
    XC-Functional eval.     ....       0.113 sec  (  2.5% of XC)
    XC-Potential eval.      ....       1.944 sec  ( 42.7% of XC)
  CPCM terms                ....       1.608 sec  ( 21.7% of F)
Diagonalization             ....       0.000 sec  (  0.0%)
Density matrix formation    ....       0.016 sec  (  0.2%)
Total Energy calculation    ....       0.006 sec  (  0.1%)
Population analysis         ....       0.005 sec  (  0.1%)
Orbital Transformation      ....       0.010 sec  (  0.1%)
Orbital Orthonormalization  ....       0.000 sec  (  0.0%)
DIIS solution               ....       0.039 sec  (  0.5%)
SOSCF solution              ....       0.032 sec  (  0.4%)
Finished LeanSCF after   7.6 sec

Maximum memory used throughout the entire LEANSCF-calculation: 15.9 MB

------------------------------------------------------------------------------
                         ORCA PROPERTY INTEGRAL CALCULATIONS
------------------------------------------------------------------------------

GBWName                                   ... triazole.gbw
Number of atoms                           ...      8
Number of basis functions                 ...    173
Max core memory                           ...   2000 MB

Dipole integrals                          ... YES
Quadrupole integrals                      ...  NO
Linear momentum integrals                 ...  NO
Angular momentum integrals                ...  NO
Higher moments length integrals           ...  NO
Higher moments velocity integrals         ...  NO
Kinetic energy integrals                  ...  NO
GIAO right hand sides                     ...  NO
GIAO dipole derivative integrals          ...  NO
SOC integrals                             ...  NO
EPR diamagnetic integrals (GIAO)          ...  NO
EPR gauge integrals                       ...  NO
Field gradient integrals                  ...  NO (   0 nuclei)
Spin-dipole/Fermi contact integrals       ...  NO (   0 nuclei)
Contact density integrals                 ...  NO (   0 nuclei)
Nucleus-orbit integrals                   ...  NO (   0 nuclei)
Geometric perturbations                   ...  NO (   8 nuclei)

Choice of electric origin   ... Center of mass
Position of electric origin ... (  0.3944,  0.4496,  0.0000) 
Choice of magnetic origin   ... GIAO
Position of magnetic origin ... (  0.0000,  0.0000,  0.0000) 

Calculating integrals                     ... Electric Dipole (Length)     done (  0.0 sec)

Property integrals calculated in   0.0 sec

Maximum memory used throughout the entire PROPINT-calculation: 14.0 MB


-------------------------------------------------------------------------------
                          DFT DISPERSION CORRECTION                            
                                                                               
                              DFTD3 V3.1  Rev 1                                
                          USING Becke-Johnson damping                          
-------------------------------------------------------------------------------
The BLYP functional is recognized
Active option DFTDOPT                   ...         4   

molecular C6(AA) [au] = 726.047738 


            DFT-D V3
 parameters
 s6 scaling factor         :     1.0000 
 a1 scaling factor         :     0.4298 
 s8 scaling factor         :     2.6996 
 a2 scaling factor         :     4.2359 
 ad hoc parameters k1-k3   :    16.0000     1.3333    -4.0000 

 Edisp/kcal,au: -7.079892798713  -0.011282526139 
 E6   /kcal   :  -2.815890353 
 E8   /kcal   :  -4.264002445 
 % E8         :  60.226935161 

-------------------------   ----------------
Dispersion correction           -0.011282526
-------------------------   ----------------


-------------------------   --------------------
FINAL SINGLE POINT ENERGY      -241.798427508914
-------------------------   --------------------

------------------------------------------------------------------------------
                         ORCA SCF GRADIENT CALCULATION
------------------------------------------------------------------------------

Nuc. rep. gradient        (SHARK) ... done (  0.0 sec)
HCore & Overlap gradient  (SHARK) ... done (  0.0 sec)
Split-RIJ-J gradient      (SHARK) ... done (  0.4 sec)
XC gradient                       ... done (  1.6 sec)
CPCM gradient                     ... done (  0.2 sec)
SMD gradient                      ... done (  0.0 sec)
Dispersion correction             ... done (  0.0 sec)

-------------------
DISPERSION GRADIENT
-------------------

   1   N   :   -0.000064192   -0.000452307    0.000000000
   2   N   :    0.000081157   -0.000479642    0.000000000
   3   N   :   -0.000217822   -0.000020153    0.000000000
   4   C   :   -0.000007191    0.000646808    0.000000000
   5   C   :    0.000258309   -0.000109642    0.000000000
   6   H   :   -0.000033730    0.000241257    0.000000000
   7   H   :    0.000233009    0.000105871    0.000000000
   8   H   :   -0.000249540    0.000067808    0.000000000

Difference to translation invariance:
           :    0.0000000000    0.0000000000    0.0000000000

Difference to rotation invariance:
           :    0.0000000000    0.0000000000   -0.0000000000

Norm of the Dispersion gradient    ...    0.0010872297
RMS gradient                       ...    0.0002219298
MAX gradient                       ...    0.0006468084

------------------
CARTESIAN GRADIENT
------------------

   1   N   :   -0.005690654   -0.207209519   -0.000000001
   2   N   :   -0.052375873   -0.067935184    0.000000000
   3   N   :    0.070776519   -0.003845084    0.000000000
   4   C   :   -0.104867104    0.287479172    0.000000000
   5   C   :    0.061135085    0.026642587   -0.000000000
   6   H   :    0.003746886   -0.031615683    0.000000000
   7   H   :    0.054544685    0.015012788   -0.000000000
   8   H   :   -0.027269543   -0.018529077    0.000000000

Difference to translation invariance:
           :    0.0000000000   -0.0000000000   -0.0000000000

Difference to rotation invariance:
           :    0.0000000010    0.0000000024   -0.0001996653

Norm of the Cartesian gradient     ...    0.3984224538
RMS gradient                       ...    0.0813276428
MAX gradient                       ...    0.2874791725

-------
TIMINGS
-------

Total SCF gradient time     ....        2.323 sec

One electron gradient       ....       0.050 sec  (  2.2%)
RI-J Coulomb gradient       ....       0.388 sec  ( 16.7%)
XC gradient                 ....       1.606 sec  ( 69.1%)
CPCM gradient               ....       0.248 sec  ( 10.7%)
   A-Matrix (El+Nuc)        ....       0.015 sec  (  0.6%)
   Potential                ....       0.233 sec  ( 10.0%)
SMD gradient                ....       0.002 sec  (  0.1%)

Maximum memory used throughout the entire SCFGRAD-calculation: 32.5 MB

------------------------------------------------------------------------------
                         ORCA PROPERTY INTEGRAL CALCULATIONS
------------------------------------------------------------------------------

GBWName                                   ... triazole.gbw
Number of atoms                           ...      8
Number of basis functions                 ...    173
Max core memory                           ...   2000 MB

Dipole integrals                          ...  NO
Quadrupole integrals                      ...  NO
Linear momentum integrals                 ...  NO
Angular momentum integrals                ...  NO
Higher moments length integrals           ...  NO
Higher moments velocity integrals         ...  NO
Kinetic energy integrals                  ...  NO
GIAO right hand sides                     ...  NO
GIAO dipole derivative integrals          ...  NO
SOC integrals                             ...  NO
EPR diamagnetic integrals (GIAO)          ...  NO
EPR gauge integrals                       ...  NO
Field gradient integrals                  ...  NO (   0 nuclei)
Spin-dipole/Fermi contact integrals       ...  NO (   0 nuclei)
Contact density integrals                 ...  NO (   0 nuclei)
Nucleus-orbit integrals                   ...  NO (   0 nuclei)
Geometric perturbations                   ... YES (   8 nuclei)

Choice of electric origin   ... Center of mass
Position of electric origin ... (  0.3944,  0.4496,  0.0000) 
Choice of magnetic origin   ... GIAO
Position of magnetic origin ... (  0.0000,  0.0000,  0.0000) 

Calculating integrals                     ... Geometrical perturbation right hand sides

-----------------------
GEOMETRIC PERTURBATIONS (8 nuclei)
-----------------------

MaxCore                            ...   2000 MB
Number of batches                  ...      1

BATCH   0: Atoms    0 -    7 ( 24 perturbations)
   => H(core) and overlap derivative integrals     ... done (     0.1 sec)
   => Making and storing internal U-coefficients   ... done (     0.0 sec)
   => RI-J derivative integrals                    ... done (     0.7 sec)
   => RI-J response operators                      ... done (     0.2 sec)
   => XC derivative integrals                      ... done (    23.9 sec)
   => XC response operators                        ... done (     4.8 sec)
   => CPCM derivative integrals                    ... done (     3.2 sec)
   => CPCM response operators                      ... done (     3.8 sec)
   => Completing and storing right hand sides      ... done (     0.0 sec)
   => Total time for right hand sides =  33.9 sec

  geometrical perturbations done ( 33.9 sec)

Property integrals calculated in  33.9 sec

Maximum memory used throughout the entire PROPINT-calculation: 38.6 MB
------------------------------------------------------------------------------
                            ORCA SCF RESPONSE CALCULATION
------------------------------------------------------------------------------

GBWName                                 ... triazole.gbw
Number of atoms                         ...      8
Number of basis functions               ...    173
Max core memory                         ...   2000 MB

Electric field perturbation             ...  NO
Quadrupolar field perturbation          ...  NO
Magnetic field perturbation (no GIAO)   ...  NO
Magnetic field perturbation (with GIAO) ...  NO
Linear momentum (velocity) perturbation ...  NO
Spin-orbit coupling perturbation        ...  NO
Choice of electric origin               ... Center of mass
Position of electric origin             ...     0.394356     0.449598     0.000000
Choice of magnetic origin               ... GIAO
Position of magnetic origin             ...     0.000000     0.000000     0.000000
Nuclear geometric perturbations         ... YES (  24 perturbations)
Nucleus-orbit perturbations             ...  NO (   0 perturbations)
Spin-dipole/Fermi contact perturbations ...  NO (   0 perturbations)

Total number of real perturbations      ...     24
Total number of imaginary perturbations ...      0
Total number of triplet perturbations   ...      0
Total number of SOC perturbations       ...      0


                                **********************
                                * REAL PERTURBATIONS *
                                **********************



-------------------
SHARK CP-SCF DRIVER
-------------------

Dimension of the orbital basis          ...    173
Dimension of the CPSCF-problem          ...   2790
Number of operators                     ...      1
Max. number of iterations               ...    128
Convergence Tolerance                   ... 1.0e-04
Number of perturbations                 ...     24
Perturbation type                       ... REAL

----------------------------
POPLE LINEAR EQUATION SOLVER
----------------------------

  ITERATION   0:   ||err||_max =   1.5221e+01 (   1.7 sec   0/ 24 done)
  ITERATION   1:   ||err||_max =   3.1115e-01 (   1.8 sec   0/ 24 done)
  ITERATION   2:   ||err||_max =   9.9055e-02 (   1.8 sec   0/ 24 done)
  ITERATION   3:   ||err||_max =   4.9128e-02 (   1.7 sec   0/ 24 done)
  ITERATION   4:   ||err||_max =   1.7816e-02 (   1.8 sec   1/ 24 done)
  ITERATION   5:   ||err||_max =   9.3905e-03 (   1.7 sec   5/ 24 done)
  ITERATION   6:   ||err||_max =   1.8991e-03 (   1.5 sec   8/ 24 done)
  ITERATION   7:   ||err||_max =   8.9944e-03 (   1.3 sec   9/ 24 done)
  ITERATION   8:   ||err||_max =   1.3266e-03 (   1.2 sec  14/ 24 done)
  ITERATION   9:   ||err||_max =   3.3762e-03 (   0.9 sec  16/ 24 done)
  ITERATION  10:   ||err||_max =   7.2780e-05 (   0.8 sec  24/ 24 done)

CP-SCF equations solved in  16.2 sec
Response densities calculated in   0.0 sec

Maximum memory used throughout the entire SCFRESP-calculation: 25.9 MB

------------------------------------------------------------------------------
                              ORCA PROPERTY CALCULATIONS
------------------------------------------------------------------------------

GBWName                                 ... triazole.gbw
Number of atoms                         ...      8
Number of basis functions               ...    173
Max core memory                         ...   2000 MB

Electric properties:
Dipole moment                           ...  NO
Quadrupole moment                       ...  NO
Static polarizability (Dipole/Dipole)   ...  NO
Static polarizability (Dipole/Quad.)    ...  NO
Static polarizability (Quad./Quad.)     ...  NO
Static polarizability (Velocity)        ...  NO

Atomic electric properties:
Dipole moment                           ...  NO
Quadrupole moment                       ...  NO
Static polarizability                   ...  NO

Choice of electric origin               ... Center of mass
Position of electric origin             ...     0.394356     0.449598     0.000000

General magnetic properties:
Magnetizability                         ...  NO

EPR properties:
g-Tensor (aka g-matrix)                 ...  NO
Zero-Field splitting spin-orbit         ...  NO
Zero-field splitting spin-spin          ...  NO
Hyperfine couplings                     ...  NO (   0 nuclei)
Quadrupole couplings                    ...  NO (   0 nuclei)
Contact density                         ...  NO (   0 nuclei)

NMR properties:
Chemical shifts                         ...  NO (   0 nuclei)
Spin-rotation constants                 ...  NO (   0 nuclei)
Spin-spin couplings                     ...  NO (   0 nuclei,    0 pairs)

Choice of magnetic origin               ... GIAO
Position of magnetic origin             ...     0.000000     0.000000     0.000000

Properties with geometric perturbations:
SCF Hessian                             ... YES
IR spectrum                             ... YES
VCD spectrum                            ...  NO
X-ray spectroscopy properties:
SCF XES/XAS/RIXS spectra                ...  NO


-----------
SCF HESSIAN
-----------

Occupied/Occupied contributions to the Hessian:
   => Occupied/Occupied contributions              ... done (  0.0 sec)
Perturbed density contributions to the Hessian:
   => Perturbed density contributions              ... done (  0.0 sec)
Explicit contributions to the Hessian:
   => Nuclear repulsion Hessian                    ... done (  0.0 sec)
   => HCore and overlap Hessian                    ... done (  1.0 sec)
   => RI-J Hessian                                 ... done (  2.9 sec)
   => XC-Hessian                                   ... done (  8.5 sec)
   => CPCM-Hessian                                 ... done (  2.0 sec)
   => Van der Waals-Hessian                        ... done (  0.9 sec)
   => SMD-Hessian                                  ... done (  0.0 sec)
   => Explicit contributions done
Dipole derivatives                                 ... done (  0.0 sec)
Mass weighting the Hessian           ... done
Calculating normal modes             ... done
Scaling frequencies                  ... done

-----------------------
VIBRATIONAL FREQUENCIES
-----------------------

Scaling factor for frequencies =  1.000000000  (already applied!)

     0:       0.00 cm**-1
     1:       0.00 cm**-1
     2:       0.00 cm**-1
     3:       0.00 cm**-1
     4:       0.00 cm**-1
     5:       0.00 cm**-1
     6:   -1898.69 cm**-1  ***imaginary mode***
     7:   -1888.17 cm**-1  ***imaginary mode***
     8:    -984.93 cm**-1  ***imaginary mode***
     9:    -515.65 cm**-1  ***imaginary mode***
    10:    -464.74 cm**-1  ***imaginary mode***
    11:     325.89 cm**-1
    12:     551.76 cm**-1
    13:     679.10 cm**-1
    14:     870.06 cm**-1
    15:     945.69 cm**-1
    16:    1141.04 cm**-1
    17:    1268.10 cm**-1
    18:    1287.26 cm**-1
    19:    1397.61 cm**-1
    20:    1570.88 cm**-1
    21:    1909.99 cm**-1
    22:    2438.80 cm**-1
    23:    3649.52 cm**-1


------------
NORMAL MODES
------------

These modes are the Cartesian displacements weighted by the diagonal matrix
M(i,i)=1/sqrt(m[i]) where m[i] is the mass of the displaced atom
Thus, these vectors are normalized but *not* orthogonal

                  0          1          2          3          4          5    
      0       0.000000   0.000000   0.000000   0.000000   0.000000   0.000000
      1       0.000000   0.000000   0.000000   0.000000   0.000000   0.000000
      2       0.000000   0.000000   0.000000   0.000000   0.000000   0.000000
      3       0.000000   0.000000   0.000000   0.000000   0.000000   0.000000
      4       0.000000   0.000000   0.000000   0.000000   0.000000   0.000000
      5       0.000000   0.000000   0.000000   0.000000   0.000000   0.000000
      6       0.000000   0.000000   0.000000   0.000000   0.000000   0.000000
      7       0.000000   0.000000   0.000000   0.000000   0.000000   0.000000
      8       0.000000   0.000000   0.000000   0.000000   0.000000   0.000000
      9       0.000000   0.000000   0.000000   0.000000   0.000000   0.000000
     10       0.000000   0.000000   0.000000   0.000000   0.000000   0.000000
     11       0.000000   0.000000   0.000000   0.000000   0.000000   0.000000
     12       0.000000   0.000000   0.000000   0.000000   0.000000   0.000000
     13       0.000000   0.000000   0.000000   0.000000   0.000000   0.000000
     14       0.000000   0.000000   0.000000   0.000000   0.000000   0.000000
     15       0.000000   0.000000   0.000000   0.000000   0.000000   0.000000
     16       0.000000   0.000000   0.000000   0.000000   0.000000   0.000000
     17       0.000000   0.000000   0.000000   0.000000   0.000000   0.000000
     18       0.000000   0.000000   0.000000   0.000000   0.000000   0.000000
     19       0.000000   0.000000   0.000000   0.000000   0.000000   0.000000
     20       0.000000   0.000000   0.000000   0.000000   0.000000   0.000000
     21       0.000000   0.000000   0.000000   0.000000   0.000000   0.000000
     22       0.000000   0.000000   0.000000   0.000000   0.000000   0.000000
     23       0.000000   0.000000   0.000000   0.000000   0.000000   0.000000
                  6          7          8          9         10         11    
      0       0.000001   0.013482  -0.018315   0.000001  -0.134143  -0.000000
      1       0.000001   0.014768   0.137353  -0.000001   0.058647   0.000001
      2      -0.052464   0.000007   0.000000   0.007270   0.000000  -0.132218
      3       0.000010   0.119119  -0.073092   0.000001  -0.112126  -0.000000
      4       0.000008   0.089244   0.173350   0.000000  -0.055485  -0.000000
      5       0.117967  -0.000017  -0.000001  -0.002215  -0.000000   0.183238
      6       0.000010   0.111511   0.140151   0.000000  -0.085147   0.000000
      7      -0.000001  -0.007617  -0.089183  -0.000003   0.346945  -0.000000
      8      -0.122598   0.000017   0.000000   0.054156   0.000001   0.163555
      9      -0.000022  -0.263630   0.104297  -0.000001   0.162669  -0.000000
     10      -0.000017  -0.197100   0.128919   0.000001  -0.246220   0.000001
     11       0.120522  -0.000017  -0.000002  -0.335825  -0.000005  -0.074931
     12      -0.000006  -0.057405  -0.145300  -0.000001   0.174317   0.000000
     13       0.000009   0.104943  -0.339513   0.000002  -0.127746  -0.000000
     14      -0.100258   0.000014   0.000002   0.231052   0.000003  -0.075093
     15       0.000015   0.173508  -0.217068  -0.000004   0.445458   0.000002
     16      -0.000003  -0.035431   0.128615  -0.000001   0.028848   0.000000
     17      -0.241445   0.000035   0.000005  -0.108802  -0.000004  -0.893297
     18       0.000001   0.018560  -0.015354  -0.000000  -0.165516   0.000001
     19       0.000044   0.501693   0.122925  -0.000001   0.157208  -0.000001
     20      -0.137494   0.000019  -0.000002  -0.314224  -0.000004   0.033634
     21       0.000023   0.241144   0.043652  -0.000001   0.309954  -0.000001
     22      -0.000062  -0.707633  -0.820377   0.000011  -0.595027  -0.000003
     23       0.930872  -0.000132   0.000003   0.848688   0.000011  -0.334407
                 12         13         14         15         16         17    
      0      -0.000000   0.035776  -0.000000  -0.004524   0.034331  -0.011784
      1       0.000001   0.161274   0.000001   0.074689  -0.005572  -0.064005
      2       0.238541  -0.000001  -0.026850   0.000000   0.000000   0.000000
      3      -0.000001  -0.180882  -0.000001  -0.124323   0.051629   0.009761
      4      -0.000001  -0.197181   0.000000   0.065410   0.088354  -0.105875
      5      -0.088319   0.000000  -0.075944   0.000001  -0.000000   0.000000
      6       0.000001   0.139418   0.000001   0.121852  -0.064516   0.067018
      7      -0.000001  -0.054463  -0.000000  -0.028033   0.050965   0.085282
      8      -0.085057   0.000000   0.024124  -0.000000  -0.000000   0.000000
      9      -0.000001  -0.060336  -0.000000  -0.052843  -0.035524   0.057338
     10       0.000001   0.047779  -0.000001  -0.146537  -0.064587   0.032979
     11       0.013058  -0.000001  -0.003323   0.000000  -0.000000  -0.000000
     12       0.000000   0.070541   0.000000   0.055251   0.034911  -0.062516
     13       0.000000   0.147071  -0.000000  -0.037649  -0.015127   0.069286
     14       0.008195   0.000001   0.007466  -0.000000   0.000000  -0.000000
     15       0.000002   0.181745  -0.000002  -0.388255  -0.472360  -0.893013
     16       0.000001   0.149125   0.000001   0.087906   0.012799  -0.049383
     17      -0.951782   0.000007  -0.168560   0.000001  -0.000001  -0.000002
     18       0.000001   0.002885  -0.000001  -0.062562   0.409126  -0.141301
     19      -0.000002  -0.630124  -0.000001  -0.141884  -0.692815   0.229609
     20      -0.119525  -0.000001   0.944953  -0.000013   0.000002   0.000000
     21      -0.000000  -0.227184   0.000006   0.519333  -0.227435   0.192849
     22      -0.000003  -0.585007   0.000006   0.691431  -0.228660  -0.223212
     23      -0.087467   0.000004   0.267420  -0.000005   0.000002  -0.000002
                 18         19         20         21         22         23    
      0      -0.037716   0.290843  -0.272925   0.118071  -0.014460  -0.004674
      1      -0.153653  -0.308341  -0.166534   0.017670   0.011102  -0.071681
      2       0.000000   0.000000  -0.000000   0.000000   0.000000  -0.000000
      3      -0.087615  -0.287743   0.053989  -0.029295   0.085618   0.000783
      4       0.118876   0.164980   0.004453  -0.012499   0.024764  -0.000014
      5       0.000000   0.000000   0.000000  -0.000000   0.000000   0.000000
      6       0.090346   0.056678   0.137694  -0.163103  -0.006148   0.003821
      7       0.005423   0.121205   0.059121  -0.054023  -0.003000   0.000845
      8       0.000000  -0.000000   0.000000   0.000000  -0.000000   0.000000
      9       0.210696  -0.132601  -0.166315  -0.014720  -0.005244  -0.003914
     10      -0.079207   0.090021   0.243569   0.066455   0.000947  -0.001253
     11       0.000000   0.000000  -0.000000  -0.000000   0.000000   0.000000
     12      -0.260108   0.139672   0.162557   0.017781  -0.002304   0.000165
     13       0.182723  -0.038125  -0.067543   0.015281  -0.002113   0.000717
     14      -0.000000  -0.000000   0.000000   0.000000  -0.000000  -0.000000
     15       0.501103   0.056601   0.217010  -0.004283   0.010398   0.028067
     16      -0.165234  -0.294702  -0.206389   0.022459   0.021879   0.996640
     17      -0.000001  -0.000002   0.000003   0.000001  -0.000001   0.000000
     18       0.193819  -0.556484   0.343888   0.067266  -0.898620   0.009412
     19      -0.569812   0.184023  -0.410418  -0.050739  -0.419393   0.013803
     20      -0.000000   0.000001  -0.000002  -0.000001   0.000000   0.000000
     21       0.380009  -0.415031   0.612805   0.933388   0.074787   0.008152
     22      -0.090515  -0.199818  -0.049940  -0.266823  -0.045290  -0.019544
     23      -0.000004   0.000001   0.000001  -0.000001  -0.000001  -0.000000


-----------
IR SPECTRUM
-----------

 Mode   freq       eps      Int      T**2         TX        TY        TZ
       cm**-1   L/(mol*cm) km/mol    a.u.
----------------------------------------------------------------------------
 11:    325.89   0.014000   70.75  0.013406  ( 0.000010 -0.000004 -0.115785)
 12:    551.76   0.011675   59.00  0.006603  ( 0.000008 -0.000003 -0.081258)
 13:    679.10   0.086309  436.17  0.039661  ( 0.154672 -0.125451  0.000001)
 14:    870.06   0.034317  173.42  0.012308  ( 0.000001 -0.000000  0.110943)
 15:    945.69   0.000146    0.74  0.000048  (-0.000283 -0.006927 -0.000002)
[...]
     21       0.000000   0.000000   0.000000   0.000000   0.000000   0.000000
     22       0.000000   0.000000   0.000000   0.000000   0.000000   0.000000
     23       0.000000   0.000000   0.000000   0.000000   0.000000   0.000000
                  6          7          8          9         10         11    
      0       0.003456  -0.000359   0.137316   0.000077   0.000184   0.000316
      1      -0.054530   0.000268  -0.089540  -0.000247   0.000190  -0.000192
      2       0.000052   0.232221  -0.000251   0.072637  -0.074767  -0.166802
      3      -0.045305   0.000420   0.202935   0.000341  -0.000310   0.000058
      4      -0.378322   0.000136   0.327419   0.000518  -0.000011  -0.000054
      5      -0.000819  -0.153657   0.000545  -0.020175   0.101546  -0.000968
      6      -0.186228   0.000080   0.031449   0.000413  -0.000207  -0.000139
      7       0.105483   0.000318  -0.053617  -0.000175   0.000070  -0.000050
      8      -0.000116  -0.141020   0.001291  -0.281909   0.038985   0.051687
      9      -0.240731   0.000249  -0.583876  -0.000902   0.000356   0.000112
     10       0.094555   0.000412  -0.234505  -0.000628   0.000149   0.000168
     11      -0.000237  -0.319538  -0.001849   0.253919  -0.131639   0.002345
     12       0.482961  -0.000218   0.155296   0.000044  -0.000060  -0.000065
     13       0.305149  -0.001304  -0.031052   0.000478  -0.000427   0.000177
     14       0.001119   0.284044   0.000237  -0.080868   0.039118   0.001620
     15       0.225193  -0.001537  -0.018130  -0.000479   0.000863  -0.001265
     16       0.051118   0.000263  -0.165484  -0.000379   0.000260  -0.000297
     17       0.000597   0.761009  -0.001057   0.204492  -0.330631   0.469463
     18       0.202452  -0.000504  -0.170383  -0.000431   0.001112  -0.002300
     19      -0.494658   0.000171   0.507653   0.000855  -0.000224   0.000234
     20      -0.000783   0.252454  -0.000621   0.026687  -0.340211   0.820286
     21      -0.144659  -0.000286   0.130251  -0.000415  -0.000886  -0.000259
     22       0.229863   0.000150   0.261654  -0.000022  -0.000172   0.000067
     23       0.001947   0.277341  -0.001137   0.895152   0.859451   0.276088
                 12         13         14         15         16         17    
      0       0.013212  -0.000100   0.085308  -0.004661  -0.143970   0.080057
      1      -0.381704   0.000186   0.100697  -0.154959   0.076086   0.020204
      2       0.000362   0.073078  -0.000245   0.000002  -0.000327   0.000106
      3       0.161947   0.000190   0.189773  -0.122333   0.176745  -0.094483
      4       0.082656   0.000002   0.054303  -0.013615  -0.108627   0.009013
      5       0.000360  -0.066288   0.000629  -0.000221   0.000430  -0.000184
      6      -0.161904  -0.000268  -0.465908   0.075217   0.050513   0.005629
      7      -0.085250   0.000124   0.103771   0.262058   0.064924  -0.070623
      8      -0.000410   0.005465  -0.000646   0.000231   0.000069   0.000005
      9       0.123292   0.000081   0.143371   0.036326  -0.033875  -0.013513
     10       0.207596  -0.000131  -0.093032  -0.044190  -0.006100  -0.005705
     11      -0.000538  -0.010198   0.000919   0.000302   0.000015  -0.000093
     12      -0.083572   0.000071   0.063639   0.039010   0.009701  -0.011343
     13       0.238335  -0.000297  -0.263808  -0.129256  -0.026173   0.037767
     14       0.000583   0.000566  -0.000668  -0.000278  -0.000050   0.000085
     15       0.040412   0.002431   0.484839   0.228229  -0.032676   0.803798
     16      -0.397014   0.000514   0.287687  -0.053920   0.131198   0.350052
     17      -0.002291  -0.779184   0.004076   0.000825  -0.000080   0.002214
     18      -0.548333  -0.001423   0.139801  -0.592324  -0.698759  -0.337268
     19       0.427997   0.000095   0.099416   0.202160   0.335748   0.122151
     20      -0.002203   0.607953  -0.001208  -0.001764  -0.001936  -0.000886
     21      -0.149563  -0.000345  -0.439608   0.185893  -0.137875  -0.048117
     22      -0.004424   0.000163   0.269045   0.619443  -0.532382  -0.278866
     23      -0.000384   0.115711  -0.002225   0.000470   0.000038  -0.000218
                 18         19         20         21         22         23    
      0       0.017559   0.229106  -0.013379   0.029784   0.006285   0.002327
      1       0.105321   0.050412   0.026671  -0.067239  -0.014758  -0.003596
      2       0.000090   0.000474  -0.000051   0.000064   0.000014   0.000004
      3       0.016718  -0.090668   0.028277   0.006063  -0.033745  -0.004516
      4      -0.063214  -0.034926  -0.011664   0.013276  -0.061429  -0.004855
      5       0.000052  -0.000199   0.000066   0.000013  -0.000073  -0.000013
      6      -0.017655  -0.049156  -0.049343  -0.003701  -0.004068   0.070772
      7      -0.140561   0.037972   0.151533   0.001354   0.002585  -0.022373
      8      -0.000047  -0.000062  -0.000061  -0.000003  -0.000000   0.000058
      9       0.017907  -0.001652   0.212688  -0.000295  -0.000338  -0.001216
     10       0.007078   0.001231  -0.757423   0.003373   0.001628   0.000395
     11      -0.000042   0.000048  -0.001421   0.000005   0.000003  -0.000003
     12      -0.007992   0.002602  -0.157827   0.000377   0.000212  -0.000014
     13       0.023187  -0.010242   0.549944  -0.001266  -0.000738   0.000771
     14       0.000040  -0.000044   0.001511  -0.000005  -0.000003   0.000000
     15      -0.156727  -0.628202  -0.100286  -0.408215  -0.071142  -0.020040
     16       0.041003  -0.345517   0.036226   0.890079   0.160960   0.057181
     17      -0.000385  -0.001567  -0.000259  -0.000882  -0.000150  -0.000037
     18      -0.464766  -0.430781  -0.005737  -0.080898   0.433008   0.030022
     19       0.183412   0.131315   0.022750  -0.163671   0.877277   0.063095
     20      -0.001267  -0.000986   0.000019  -0.000175   0.000935   0.000069
     21       0.272370  -0.192982  -0.069036   0.041429   0.077730  -0.948336
     22       0.783073  -0.421276   0.099063  -0.020490  -0.026077   0.294160
     23       0.000362  -0.000456  -0.000188   0.000027   0.000046  -0.000688


-----------
IR SPECTRUM
-----------

 Mode   freq       eps      Int      T**2         TX        TY        TZ
       cm**-1   L/(mol*cm) km/mol    a.u.
----------------------------------------------------------------------------
  6:    152.67   0.000854    4.32  0.001746  (-0.033897 -0.024437  0.000099)
  7:    257.78   0.008573   43.33  0.010379  (-0.000152  0.000554  0.101875)
  8:    390.50   0.000023    0.12  0.000018  ( 0.004069  0.001321 -0.000169)
  9:    426.40   0.015867   80.19  0.011613  ( 0.000140 -0.000204  0.107761)
 10:    466.08   0.000459    2.32  0.000307  ( 0.000401  0.000405  0.017526)
 11:    702.46   0.040073  202.51  0.017802  (-0.000440 -0.000072  0.133424)
 12:    765.88   0.026711  134.99  0.010884  (-0.089499 -0.053604 -0.000317)
 13:    897.54   0.000176    0.89  0.000061  ( 0.000153  0.000151 -0.007819)
 14:    969.33   0.002617   13.22  0.000842  ( 0.014306  0.025253  0.000004)
 15:   1137.33   0.013664   69.05  0.003749  (-0.014689  0.059442 -0.000101)
 16:   1306.84   0.105869  535.02  0.025281  (-0.122054 -0.101899 -0.000328)
 17:   1371.40   0.045224  228.54  0.010291  ( 0.061240  0.080873  0.000216)
 18:   1499.38   0.000052    0.26  0.000011  (-0.000237  0.003276 -0.000031)
 19:   1589.93   0.021832  110.33  0.004285  ( 0.022936  0.061311  0.000106)
 20:   2017.20   0.059967  303.05  0.009277  ( 0.010972  0.095690  0.000233)
 21:   3296.93   0.051740  261.47  0.004897  (-0.011227  0.069075 -0.000015)
 22:   3350.20   0.061838  312.50  0.005760  ( 0.040015  0.064489  0.000103)
 23:   3410.12   0.054730  276.58  0.005008  (-0.069782  0.011784 -0.000060)

* The epsilon (eps) is given for a Dirac delta lineshape.
** The dipole moment derivative (T) already includes vibrational overlap.

The first frequency considered to be a vibration is 6
The total number of vibrations considered is 18


--------------------------
THERMOCHEMISTRY AT 298.15K
--------------------------

Temperature         ...   298.15 K
Pressure            ...     1.00 atm
Total Mass          ...    69.07 AMU
Quasi RRHO          ...     True
Cut-Off Frequency   ...     1.00 cm^-1

Throughout the following assumptions are being made:
  (1) The electronic state is orbitally nondegenerate
  (2) There are no thermally accessible electronically excited states
  (3) Hindered rotations indicated by low frequency modes are not
      treated as such but are treated as vibrations and this may
      cause some error
  (4) All equations used are the standard statistical mechanics
      equations for an ideal gas
  (5) All vibrations are strictly harmonic

freq.     152.67  E(vib)   ...       0.40 
freq.     257.78  E(vib)   ...       0.30 
freq.     390.50  E(vib)   ...       0.20 
freq.     426.40  E(vib)   ...       0.18 
freq.     466.08  E(vib)   ...       0.16 
freq.     702.46  E(vib)   ...       0.07 
freq.     765.88  E(vib)   ...       0.06 
freq.     897.54  E(vib)   ...       0.03 
freq.     969.33  E(vib)   ...       0.03 
freq.    1137.33  E(vib)   ...       0.01 
freq.    1306.84  E(vib)   ...       0.01 
freq.    1371.40  E(vib)   ...       0.01 
freq.    1499.38  E(vib)   ...       0.00 
freq.    1589.93  E(vib)   ...       0.00 
freq.    2017.20  E(vib)   ...       0.00 
freq.    3296.93  E(vib)   ...       0.00 
freq.    3350.20  E(vib)   ...       0.00 
freq.    3410.12  E(vib)   ...       0.00 

------------
INNER ENERGY
------------

The inner energy is: U= E(el) + E(ZPE) + E(vib) + E(rot) + E(trans)
    E(el)   - is the total energy from the electronic structure calculation
              = E(kin-el) + E(nuc-el) + E(el-el) + E(nuc-nuc)
    E(ZPE)  - the the zero temperature vibrational energy from the frequency calculation
    E(vib)  - the the finite temperature correction to E(ZPE) due to population
              of excited vibrational states
    E(rot)  - is the rotational thermal energy
    E(trans)- is the translational thermal energy

Summary of contributions to the inner energy U:
Electronic energy                ...   -242.12115937 Eh
Zero point energy                ...      0.05469420 Eh      34.32 kcal/mol
Thermal vibrational correction   ...      0.00231425 Eh       1.45 kcal/mol
Thermal rotational correction    ...      0.00141627 Eh       0.89 kcal/mol
Thermal translational correction ...      0.00141627 Eh       0.89 kcal/mol
-----------------------------------------------------------------------
Total thermal energy                   -242.06131837 Eh


Summary of corrections to the electronic energy:
(perhaps to be used in another calculation)
Total thermal correction                  0.00514680 Eh       3.23 kcal/mol
Non-thermal (ZPE) correction              0.05469420 Eh      34.32 kcal/mol
-----------------------------------------------------------------------
Total correction                          0.05984100 Eh      37.55 kcal/mol


--------
ENTHALPY
--------

The enthalpy is H = U + kB*T
                kB is Boltzmann's constant
Total thermal energy              ...   -242.06131837 Eh 
Thermal Enthalpy correction       ...      0.00094421 Eh       0.59 kcal/mol
-----------------------------------------------------------------------
Total Enthalpy                    ...   -242.06037416 Eh


Note: Only C1 symmetry has been detected, increase convergence thresholds 
      if your molecule has a higher symmetry. Symmetry factor of 1.0 is   
      used for the rotational entropy correction. 
 

Note: Rotational entropy computed according to Herzberg 
Infrared and Raman Spectra, Chapter V,1, Van Nostrand Reinhold, 1945 
Point Group:  C1, Symmetry Number:   1  
Rotational constants in cm-1:     0.496497     0.129260     0.102559 

Vibrational entropy computed according to the QRRHO of S. Grimme
Chem.Eur.J. 2012 18 9955 using a reference frequency of 100.0 cm-1


-------
ENTROPY
-------

The entropy contributions are T*S = T*(S(el)+S(vib)+S(rot)+S(trans))
     S(el)   - electronic entropy
     S(vib)  - vibrational entropy
     S(rot)  - rotational entropy
     S(trans)- translational entropy
The entropies will be listed as multiplied by the temperature to get
units of energy

Electronic entropy                ...      0.00000000 Eh      0.00 kcal/mol
Vibrational entropy               ...      0.00371573 Eh      2.33 kcal/mol
Rotational entropy                ...      0.01188232 Eh      7.46 kcal/mol
Translational entropy             ...      0.01834709 Eh     11.51 kcal/mol
-----------------------------------------------------------------------
Final entropy term                ...      0.03394514 Eh     21.30 kcal/mol

In case the symmetry of your molecule has not been determined correctly
or in case you have a reason to use a different symmetry number we print 
out the resulting rotational entropy values for sn=1,12:

 non-linear molecules -----------------------------------
|  sn= 1 | S(rot)=       0.01188232 Eh      7.46 kcal/mol|
|  sn= 2 | S(rot)=       0.01122786 Eh      7.05 kcal/mol|
|  sn= 3 | S(rot)=       0.01084503 Eh      6.81 kcal/mol|
|  sn= 4 | S(rot)=       0.01057341 Eh      6.63 kcal/mol|
|  sn= 5 | S(rot)=       0.01036272 Eh      6.50 kcal/mol|
|  sn= 6 | S(rot)=       0.01019057 Eh      6.39 kcal/mol|
|  sn= 7 | S(rot)=       0.01004503 Eh      6.30 kcal/mol|
|  sn= 8 | S(rot)=       0.00991895 Eh      6.22 kcal/mol|
|  sn= 9 | S(rot)=       0.00980774 Eh      6.15 kcal/mol|
|  sn=10 | S(rot)=       0.00970826 Eh      6.09 kcal/mol|
|  sn=11 | S(rot)=       0.00961827 Eh      6.04 kcal/mol|
|  sn=12 | S(rot)=       0.00953612 Eh      5.98 kcal/mol|
 linear molecules ---------------------------------------
|  Dinfh | S(rot)=       0.00747600 Eh      4.69 kcal/mol|
|  Cinfv | S(rot)=       0.00813046 Eh      5.10 kcal/mol|
 --------------------------------------------------------


-------------------
GIBBS FREE ENERGY
-------------------

The Gibbs free energy is G = H - T*S

Total enthalpy                    ...   -242.06037416 Eh 
Total entropy correction          ...     -0.03394514 Eh    -21.30 kcal/mol
-----------------------------------------------------------------------
Final Gibbs free energy         ...   -242.09431930 Eh

For completeness - the Gibbs free energy minus the electronic energy
G-E(el)                           ...      0.02684007 Eh     16.84 kcal/mol


Maximum memory used throughout the entire PROP-calculation: 33.7 MB

--------------------------------
SUGGESTED CITATIONS FOR THIS RUN
--------------------------------

Below you find a list of papers that are relevant to this ORCA run
We neither can nor want to force you to cite these papers, but we appreciate if you do
You receive ORCA, which is the product of decades of hard work by many enthusiastic individuals, for free
The only thing we kindly ask in return is that you cite our papers,
We deeply appreciate it, if you show your appreciation for ORCA by not just citing the generic ORCA reference.

Please note that relegating all ORCA citations to the supporting information does *not* help us.
SI sections are not indexed - citations you put there will not count into any citation statistics
But we need these citations in order to attract the funding resources that allow us to do what we are doing

Therefore, if you are a happy ORCA user, please consider citing a few of the papers listed below in the main body of your paper

In addition to the list printed below, the program has created the file triazole.bibtex that contains the list in bibtex format
You can import this file easily into all common literature databanks and citation aid programs


List of essential papers. We consider these as the minimum necessary citations

  1. Neese,F.
     Software update: the ORCA program system, version 5.0
     WIRES Comput. Molec. Sci., 2022 12(1)e1606
     doi.org/10.1002/wcms.1606

List of papers to cite with high priority. The work reported in these papers was absolutely
necessary for this run to complete.
Our perspective: the developers of density functionals and basis sets usually get cited in chemistry papers
Good! But without the algorithms to do something with them, the functionals or basis sets would not do anything.
Hence, in our opinion, the algorithm design and method developments papers are equally worthy of getting cited

  1. Neese,F.
     An improvement of the resolution of the identity approximation for the formation of the Coulomb matrix
     J. Comp. Chem., 2003 24(14)1740-1747
     doi.org/10.1002/jcc.10318
  2. Bykov,D.; Petrenko,T.; Izsak,R.; Kossmann,S.; Becker,U.; Valeev,E.; Neese,F.
     Efficient implementation of the analytic second derivatives of Hartree-Fock and hybrid DFT energies: a detailed analysis of different approximations
     Molec. Phys., 2015 113 1961-1977
     doi.org/10.1080/00268976.2015.1025114
  3. Garcia-Rates,M.; Neese,F.
     Efficient implementation of the analytical second derivatives of hartree-fock and hybrid DFT energies within the framework of the conductor-like polarizable continuum model
     J. Comput. Chem., 2019 40 1816-1828
     doi.org/10.1002/jcc.25833
  4. Garcia-Rates,M.; Neese,F.
     Effect of the Solute Cavity on the Solvation Energy and its Derivatives within the Framework of the Gaussian Charge Scheme
     J. Comput. Chem., 2020 41 922-939
     doi.org/10.1002/jcc.26139
  5. Neese,F.
     The SHARK Integral Generation and Digestion System
     J. Comp. Chem., 2022  1-16
     doi.org/10.1002/jcc.26942
  6. Grimme,S.; Antony,J.; Ehrlich,S.; Krieg,H.
     A consistent and accurate ab initio parametrization of density functional dispersion correction (DFT-D) for the 94 elements H-Pu
     J. Chem. Phys., 2010 132 154104
     doi.org/10.1063/1.3382344
  7. Grimme,S.; Ehrlich,S.; Goerigk,L.
     Effect of the damping function in dispersion corrected density functional theory
     J. Comput. Chem., 2011 32(7)1456-1465
     doi.org/10.1002/jcc.21759

List of suggested additional citations. These are papers that are important in the 'surrounding' of 
of this run, or papers that preceded the highly important papers. If you like your results we are grateful for a citation.

  1. Neese,F.
     The ORCA program system
     WIRES Comput. Molec. Sci., 2012 2(1)73-78
     doi.org/10.1002/wcms.81
  2. Neese,F.
     Software update: the ORCA program system, version 4.0
     WIRES Comput. Molec. Sci., 2018 8(1)1-6
     doi.org/10.1002/wcms.1327
  3. Neese,F.; Wennmohs,F.; Becker,U.; Riplinger,C.
     The ORCA quantum chemistry program package
     J. Chem. Phys., 2020 152 Art. No. L224108
     doi.org/10.1063/5.0004608

List of optional additional citations

  1. Neese,F.
     Approximate second-order SCF convergence for spin unrestricted wavefunctions
     Chem. Phys. Lett., 2000 325(1-3)93-98
     doi.org/10.1016/s0009-2614(00)00662-x

Timings for individual modules:

Sum of individual times          ...      397.857 sec (=   6.631 min)
Startup calculation              ...       10.900 sec (=   0.182 min)   2.7 %
SCF iterations                   ...      241.221 sec (=   4.020 min)  60.6 %
Property integrals               ...       23.586 sec (=   0.393 min)   5.9 %
SCF Response                     ...       12.475 sec (=   0.208 min)   3.1 %
Property calculations            ...       14.429 sec (=   0.240 min)   3.6 %
SCF Gradient evaluation          ...       95.028 sec (=   1.584 min)  23.9 %
Geometry relaxation              ...        0.218 sec (=   0.004 min)   0.1 %
                             ****ORCA TERMINATED NORMALLY****
TOTAL RUN TIME: 0 days 0 hours 7 minutes 48 seconds 67 msec
