
                                 *****************
                                 * O   R   C   A *
                                 *****************

                                            #,                                       
                                            ###                                      
                                            ####                                     
                                            #####                                    
                                            ######                                   
                                           ########,                                 
                                     ,,################,,,,,                         
                               ,,#################################,,                 
                          ,,##########################################,,             
                       ,#########################################, ''#####,          
                    ,#############################################,,   '####,        
                  ,##################################################,,,,####,       
                ,###########''''           ''''###############################       
              ,#####''   ,,,,##########,,,,          '''####'''          '####       
            ,##' ,,,,###########################,,,                        '##       
           ' ,,###''''                  '''############,,,                           
         ,,##''                                '''############,,,,        ,,,,,,###''
      ,#''                                            '''#######################'''  
     '                                                          ''''####''''         
             ,#######,   #######,   ,#######,      ##                                
            ,#'     '#,  ##    ##  ,#'     '#,    #''#        ,####,    ,#,          
            ##       ##  ##   ,#'  ##            #'  '#       #'       ,# #          
            ##       ##  #######   ##           ,######,      #####,      #          
            '#,     ,#'  ##    ##  '#,     ,#' ,#      #,     #,   #      #          
             '#######'   ##     ##  '#######'  #'      '#     '####' #    #          



                #########################################################
                #                        -***-                          #
                #          Department of theory and spectroscopy        #
                #                                                       #
                #                      Frank Neese                      #
                #                                                       #
                #     Directorship, Architecture, Infrastructure        #
                #                    SHARK, DRIVERS                     #
                #        Core code/Algorithms in most modules           #
                #                                                       #
                #        Max Planck Institute fuer Kohlenforschung      #
                #                Kaiser Wilhelm Platz 1                 #
                #                 D-45470 Muelheim/Ruhr                 #
                #                      Germany                          #
                #                                                       #
                #                  All rights reserved                  #
                #                        -***-                          #
                #########################################################


                         Program Version 6.1.1  -  RELEASE   -


 With contributions from (in alphabetic order):
[Max-Planck-Institut fuer Kohlenforschung]                               
  Daniel Aravena         : Magnetic Suceptibility                        
  Michael Atanasov       : Ab Initio Ligand Field Theory (pilot matlab implementation)
  Alexander A. Auer      : GIAO ZORA, VPT2 properties, NMR spectrum      
  Ute Becker             : All parallelization in ORCA, NUMFREQ, NUMCALC 
  Giovanni Bistoni       : ED, misc. LED, open-shell LED, HFLD           
  Dmytro Bykov           : pre 5.0 version of the SCF Hessian            
  Marcos Casanova-Páez   : Triplet and SCS-CIS(D). UHF-(DLPNO)-IP/EA/STEOM-CCSD. UHF-CVS-IP/STEOM-CCSD   
  Vijay G. Chilkuri      : MRCI spin determinant printing, contributions to CSF-ICE 
  Pauline Colinet        : FMM embedding                                 
  Dipayan Datta          : RHF DLPNO-CCSD density                        
  Achintya Kumar Dutta   : EOM-CC, STEOM-CC                              
  Nicolas Foglia         : Exact transition moments, OPA infrastructure, MCD improvements    
  Dmitry Ganyushin       : Spin-Orbit,Spin-Spin,Magnetic field MRCI      
  Miquel Garcia-Rates    : C-PCM and meta-GGA Hessian, CCSD/C-PCM, Gaussian charge scheme 
  Tiago L. C. Gouveia    : GS-ROHF, GS-ROCIS                             
  Yang Guo               : DLPNO-NEVPT2, F12-NEVPT2, CIM, IAO-localization        
  Andreas Hansen         : Spin unrestricted coupled pair/coupled cluster methods 
  Ingolf Harden          : AUTO-CI MPn and infrastructure                
  Benjamin Helmich-Paris : MC-RPA, TRAH-(SCF,CASSCF), AVAS, COSX integrals, SCF dyn. polar., MC-PDFT, srDFT 
  Lee Huntington         : MR-EOM, pCC                                   
  Robert Izsak           : Overlap fitted RIJCOSX, COSX-SCS-MP3, EOM     
  Riya Kayal             : Wick's Theorem for AUTO-CI, AUTO-CI UHF-CCSDT 
  Emily Kempfer          : AUTO-CI RHF CISDT and CCSDT, approximate NEVPT4
  Christian Kollmar      : KDIIS, OOCD, Brueckner-CCSD(T), CCSD density, CASPT2, CASPT2-K, improved NEVPT2 
  Axel Koslowski         : Symmetry handling                             
  Simone Kossmann        : meta-GGA functionals, TD-DFT gradient, OOMP2, (MP2 Hessian; deprecated post 5.0) 
  Lucas Lang             : DCDCAS, Hyperfine gauge corrections, ICE-SOC+SSC
  Marvin Lechner         : AUTO-CI (C++ implementation), FIC-MRCC        
  Spencer Leger          : CASSCF response                               
  Dagmar Lenk            : GEPOL surface, SMD, ORCA-2-JSON               
  Dimitrios Liakos       : Extrapolation schemes; Compound Job, Property file
  Dimitrios Manganas     : Further ROCIS development; embedding schemes. LFT, Crystal Embedding 
  Dimitrios Pantazis     : SARC Basis sets                               
  Anastasios Papadopoulos: AUTO-CI, single reference methods and gradients 
  Taras Petrenko         : pre 6.0 DFT Hessian and TD-DFT gradient,  ECA, NRVS 
  Petra Pikulova         : Analytic Raman intensities                    
  Peter Pinski           : DLPNO-MP2, DLPNO-MP2 Gradient                 
  Shashank Vittal Rao    : ES-AILFT, MagRelax                            
  Christoph Reimann      : Effective Core Potentials                     
  Marius Retegan         : Local ZFS, SOC                                
  Christoph Riplinger    : Optimizer, TS searches, QM/MM, DLPNO-CCSD(T), (RO)-DLPNO pert. Triples 
  Michael Roemelt        : Original ROCIS implementation, recursive CI coupling coefficients
  Masaaki Saitow         : Open-shell DLPNO-CCSD energy and density      
  Barbara Sandhoefer     : DKH picture change effects                    
  Yorick L. A. Schmerwitz: GMF and freeze-and-release deltaSCF, NEB S-IDPP initial path                    
  Kantharuban Sivalingam : CASSCF convergence/infrastructure, NEVPT2, NEVPT3, NEVPT4(SD), FIC-MRCI and CEPA variants
  Bernardo de Souza      : ESD, SOC TD-DFT                               
  Georgi L. Stoychev     : AutoAux, RI-MP2 NMR, DLPNO-MP2 response, X2C  
  Van Anh Tran           : RI-MP2 g-tensors                              
  Willem Van den Heuvel  : Paramagnetic NMR                              
  Zikuan Wang            : NOTCH, Electric field optimization            
  Frank Wennmohs         : Technical directorship and infrastructure     
  Hang Xu                : AUTO-CI-Response properties                   
                                                                         
[FACCTs GmbH]                                                            
  Markus Bursch, Nicolas Foglia, Miquel Garcia-Rates, Ingolf Harden, Hagen Neugebauer, Anastasios Papadopoulos, 
  Christoph Riplinger, Bernardo de Souza, Georgi L. Stoychev                                                    
                                                                 
  APM, various basis sets, CI-OPT, improved COSX, DLPNO-Multilevel,           
  DOCKER, DRACO, updates on ESD, Fragmentator, GOAT, IRC, LR-CPCM, L-BFGS, MBIS, meta-GGA TD-DFT gradient, ML-optimized integration grids, 
  MM, NACMEs, nearIR, NEB, NEB-TS, NL-DFT gradient (VV10), 2- and 3-layer-ONIOM, interface openCOSMO-RS, QMMM,   
  Crystal-QMMM, RESP, rigid body optimization, SF, symmetry and pop. for TD-DFT, various functionals, SOLVATOR                                   
                                                                         
[Other institutions]                                                     
  V. Asgeirsson          : NEB                                           
  Christoph Bannwarth    : sTDA-DFT, sTD-DFT, PBEh-3c, B97-3c, D3        
  Giovanni Bistoni       : ETS/NOCV, ADLD/ADEX, COVALED                  
  Martin Brehm           : Molecular dynamics                            
  Ronald Cardenas        : ETS/NOCV                                      
  Martina Colucci        : COVALED                                       
  Sebastian Ehlert       : rSCAN, r2SCAN, r2SCAN-3c, D4, dhf basis sets  
  Marvin Friede          : D4 for Fr, Ra, Ac-Lr                          
  Lars Goerigk           : TD-DFT with DH, B97 family of functionals     
  Stefan Grimme          : VdW corrections, initial TS optimization, DFT functionals, gCP, sTDA/sTD-DF 
  Waldemar Hujo          : DFT-NL                                        
  H. Jonsson             : NEB                                           
  Holger Kruse           : gCP                                           
  Marcel Mueller         : wB97X-3c, vDZP basis set                      
  Hagen Neugebauer       : wr2SCAN, Native XTB                           
  Gianluca Regni         : ADLD/ADEX                                     
  Tobias Risthaus        : pre 6.0 range-separated hybrid DFT and stability analysis
  Lukas Wittmann         : regularized MP2, r2SCAN double-hybrids, wr2SCAN        
                                                                         
We gratefully acknowledge several colleagues who have allowed us to      
interface, adapt or use parts of their codes:                            
  Ed Valeev, F. Pavosevic, A. Kumar             : LibInt (2-el integral package), F12 methods 
  Garnet Chan, S. Sharma, J. Yang, R. Olivares  : DMRG                   
  Ulf Ekstrom                                   : XCFun DFT Library      
  Mihaly Kallay                                 : mrcc  (arbitrary order and MRCC methods)
  Frank Weinhold                                : gennbo (NPA and NBO analysis)           
  Simon Mueller                                 : openCOSMO-RS                            
  Christopher J. Cramer and Donald G. Truhlar   : smd solvation model                     
  S Lehtola, MJT Oliveira, MAL Marques          : LibXC Library                           
  Liviu Ungur et al                             : ANISO software                          


 Your calculation uses the libint2 library for the computation of 2-el integrals
 For citations please refer to: http://libint.valeyev.net

 Your ORCA version has been built with support for libXC version: 7.0.0
 For citations please refer to: https://libxc.gitlab.io

 This ORCA versions uses:
   CBLAS   interface :  Fast vector & matrix operations
   LAPACKE interface :  Fast linear algebra routines
   Shared memory     :  Shared parallel matrices


  ***********************************
  * Starting time: Sun May 31 18:33:28 2026
  * Host name:     JUST
  * Process ID:    8916
  * Working dir.:  C:\Users\alexv\OneDrive\projects\labs\digital-modeling\9 Лаба
  ***********************************

NOTE: MaxCore=2000 MB was set to SCF,MP2,MDCI,CIPSI,MRCI,RASCI and CIS
      => If you want to overwrite this, your respective input block should be placed after the MaxCore statement
Your calculation utilizes the atom-pairwise dispersion correction
with the Becke-Johnson damping scheme (D3BJ)


Your calculation utilizes the SMD solvation module
Please cite in your paper:
Marenich, A. V.; Cramer, C. J.; Truhlar, D. G. J. Phys. Chem. B 2009, 113, 6378 

Warning: RI is on but no J-basis has been assigned. Assigning Def2/J (nothing to worry about!)
================================================================================

----- Orbital basis set information -----
Your calculation utilizes the basis: def2-TZVP
   F. Weigend and R. Ahlrichs, Phys. Chem. Chem. Phys. 7, 3297 (2005).

----- AuxJ basis set information -----
Your calculation utilizes the auxiliary basis: def2/J
   H-Rn: F. Weigend, Phys. Chem. Chem. Phys. 8, 1057 (2006).
   Fr-Lr: K. Eichkorn, F. Weigend, O. Treutler, R. Ahlrichs; Theor. Chem. Acc. 97, 119 (1997).

================================================================================
                                        WARNINGS
                       Please study these warnings very carefully!
================================================================================


WARNING: Geometry Optimization
  ===> : Switching off AutoStart
         For restart on a previous wavefunction, please use MOREAD

================================================================================
                                       INPUT FILE
================================================================================
NAME = triazole.inp
|  1> ! BLYP DEF2-TZVP D3BJ OPT FREQ CPCM(WATER)
|  2> 
|  3> %maxcore 2000
|  4> 
|  5> %cpcm
|  6>   SMD true
|  7>   SMDsolvent "water"
|  8>   end
|  9> 
| 10> %geom
| 11>   MaxIter 200
| 12>   Calc_Hess true
| 13>   end
| 14> 
| 15> %freq
| 16>   Temp 298.15
| 17>   end
| 18> 
| 19> * xyz 0 1
| 20> C     4.5317    0.9175    0.0823
| 21> C     3.7258   -0.0101    0.7667
| 22> N     2.5283   -0.0592    0.1754
| 23> N     3.8278    1.4365   -0.9283
| 24> N     2.6561    0.8176   -0.8164
| 25> H     5.5510    1.2252    0.2639
| 26> H     3.9443   -0.6239    1.6283
| 27> H     1.8973    1.0051   -1.4558
| 28> **                         ****END OF INPUT****
================================================================================

                       *****************************
                       * Geometry Optimization Run *
                       *****************************

Geometry optimization settings:
Update method            Update   .... BFGS
Choice of coordinates    CoordSys .... (2022) Redundant Internals
Initial Hessian          InHess   .... Almloef's Model
Max. no of cycles        MaxIter  .... 200

Convergence Tolerances:
Energy Change            TolE     ....  5.0000e-06 Eh
Max. Gradient            TolMAXG  ....  3.0000e-04 Eh/bohr
RMS Gradient             TolRMSG  ....  1.0000e-04 Eh/bohr
Max. Displacement        TolMAXD  ....  4.0000e-03 bohr
RMS Displacement         TolRMSD  ....  2.0000e-03 bohr
Strict Convergence                .... False

------------------------------------------------------------------------------
                        ORCA OPTIMIZATION COORDINATE SETUP
------------------------------------------------------------------------------

The optimization will be done in redundant internal coordinates (2022)
Making redundant internal coordinates   ...  (2022 redundants) done
Evaluating the initial hessian          ...  (Is done on the fly) done
Evaluating the coordinates              ...  done
Calculating the B-matrix                .... done
Calculating the G-matrix                .... done
The number of degrees of freedom        ....   31

    -----------------------------------------------------------------
                    Redundant Internal Coordinates


    -----------------------------------------------------------------
         Definition                    Initial Value    d2E/dq (diagonal element)
    -----------------------------------------------------------------
      1. B(C   1,C   0)                  1.4065         0.000000   
      2. B(N   2,C   1)                  1.3364         0.000000   
      3. B(N   3,C   0)                  1.3365         0.000000   
      4. B(N   4,N   3)                  1.3298         0.000000   
      5. B(N   4,N   2)                  1.3300         0.000000   
      6. B(H   5,C   0)                  1.0801         0.000000   
      7. B(H   6,C   1)                  1.0802         0.000000   
      8. B(H   7,N   4)                  1.0098         0.000000   
      9. A(C   1,C   0,H   5)          130.2993         0.000000   
     10. A(C   1,C   0,N   3)          108.8006         0.000000   
     11. A(N   3,C   0,H   5)          120.9001         0.000000   
     12. A(C   0,C   1,N   2)          108.8049         0.000000   
     13. A(C   0,C   1,H   6)          130.3127         0.000000   
     14. A(N   2,C   1,H   6)          120.8824         0.000000   
     15. A(C   1,N   2,N   4)          102.6870         0.000000   
     16. A(C   0,N   3,N   4)          102.6913         0.000000   
     17. A(N   3,N   4,H   7)          121.4914         0.000000   
     18. A(N   2,N   4,H   7)          121.4924         0.000000   
     19. A(N   2,N   4,N   3)          117.0162         0.000000   
     20. D(H   6,C   1,C   0,N   3)   -179.9951         0.000000   
     21. D(N   2,C   1,C   0,H   5)    179.9994         0.000000   
     22. D(N   2,C   1,C   0,N   3)     -0.0045         0.000000   
     23. D(H   6,C   1,C   0,H   5)      0.0088         0.000000   
     24. D(N   4,N   2,C   1,H   6)   -179.9979         0.000000   
     25. D(N   4,N   2,C   1,C   0)      0.0104         0.000000   
     26. D(N   4,N   3,C   0,C   1)     -0.0037         0.000000   
     27. D(N   4,N   3,C   0,H   5)    179.9929         0.000000   
     28. D(H   7,N   4,N   3,C   0)   -179.9979         0.000000   
     29. D(N   2,N   4,N   3,C   0)      0.0114         0.000000   
     30. D(H   7,N   4,N   2,C   1)    179.9952         0.000000   
     31. D(N   3,N   4,N   2,C   1)     -0.0141         0.000000   
    -----------------------------------------------------------------

Number of atoms                         .... 8
Number of degrees of freedom            .... 31


         *************************************************************
         *                GEOMETRY OPTIMIZATION CYCLE   1            *
         *************************************************************
---------------------------------
CARTESIAN COORDINATES (ANGSTROEM)
---------------------------------
  C      4.531700    0.917500    0.082300
  C      3.725800   -0.010100    0.766700
  N      2.528300   -0.059200    0.175400
  N      3.827800    1.436500   -0.928300
  N      2.656100    0.817600   -0.816400
  H      5.551000    1.225200    0.263900
  H      3.944300   -0.623900    1.628300
  H      1.897300    1.005100   -1.455800

----------------------------
CARTESIAN COORDINATES (A.U.)
----------------------------
  NO LB      ZA    FRAG     MASS         X           Y           Z
   0 C     6.0000    0    12.011    8.563672    1.733824    0.155524
   1 C     6.0000    0    12.011    7.040742   -0.019086    1.448853
   2 N     7.0000    0    14.007    4.777795   -0.111872    0.331458
   3 N     7.0000    0    14.007    7.233494    2.714592   -1.754233
   4 N     7.0000    0    14.007    5.019302    1.545040   -1.542772
   5 H     1.0000    0     1.008   10.489870    2.315292    0.498699
   6 H     1.0000    0     1.008    7.453647   -1.179000    3.077041
   7 H     1.0000    0     1.008    3.585377    1.899364   -2.751063

--------------------------------
INTERNAL COORDINATES (ANGSTROEM)
--------------------------------
 C      0   0   0     0.000000000000     0.00000000     0.00000000
 C      1   0   0     1.406527614375     0.00000000     0.00000000
 N      2   1   0     1.336432845301   108.80490364     0.00000000
 N      1   2   3     1.336468693984   108.80055965     0.00000000
 N      4   1   2     1.329826947388   102.69133760     0.00000000
 H      1   2   3     1.080106633625   130.29932955   179.99935402
 H      2   1   3     1.080207040340   130.31268506   180.00940656
 H      5   4   1     1.009834664685   121.49135522   180.00211932

---------------------------
INTERNAL COORDINATES (A.U.)
---------------------------
 C      0   0   0     0.000000000000     0.00000000     0.00000000
 C      1   0   0     2.657951990967     0.00000000     0.00000000
 N      2   1   0     2.525492073997   108.80490364     0.00000000
 N      1   2   3     2.525559818190   108.80055965     0.00000000
 N      4   1   2     2.513008736072   102.69133760     0.00000000
 H      1   2   3     2.041105732982   130.29932955   179.99935402
 H      2   1   3     2.041295474176   130.31268506   180.00940656
 H      5   4   1     1.908310956795   121.49135522   180.00211932

---------------------
BASIS SET INFORMATION
---------------------
There are 3 groups of distinct atoms

 Group   1 Type C   : 11s6p2d1f contracted to 5s3p2d1f pattern {62111/411/11/1}
 Group   2 Type N   : 11s6p2d1f contracted to 5s3p2d1f pattern {62111/411/11/1}
 Group   3 Type H   : 5s1p contracted to 3s1p pattern {311/1}

Atom   0C    basis set group =>   1
Atom   1C    basis set group =>   1
Atom   2N    basis set group =>   2
Atom   3N    basis set group =>   2
Atom   4N    basis set group =>   2
Atom   5H    basis set group =>   3
Atom   6H    basis set group =>   3
Atom   7H    basis set group =>   3
---------------------------------
AUXILIARY/J BASIS SET INFORMATION
---------------------------------
There are 3 groups of distinct atoms

 Group   1 Type C   : 12s5p4d2f1g contracted to 6s4p3d1f1g pattern {711111/2111/211/2/1}
 Group   2 Type N   : 12s5p4d2f1g contracted to 6s4p3d1f1g pattern {711111/2111/211/2/1}
 Group   3 Type H   : 5s2p1d contracted to 3s1p1d pattern {311/2/1}

Atom   0C    basis set group =>   1
Atom   1C    basis set group =>   1
Atom   2N    basis set group =>   2
Atom   3N    basis set group =>   2
Atom   4N    basis set group =>   2
Atom   5H    basis set group =>   3
Atom   6H    basis set group =>   3
Atom   7H    basis set group =>   3
Текущая кодовая страница: 1251
------------------------------------------------------------------------------
                             ORCA STARTUP CALCULATIONS
                           -- RI-GTO INTEGRALS CHOSEN --
------------------------------------------------------------------------------
------------------------------------------------------------------------------
                   ___                                                        
                  /   \      - P O W E R E D   B Y -                         
                 /     \                                                     
                 |  |  |   _    _      __       _____    __    __             
                 |  |  |  | |  | |    /  \     |  _  \  |  |  /  |          
                  \  \/   | |  | |   /    \    | | | |  |  | /  /          
                 / \  \   | |__| |  /  /\  \   | |_| |  |  |/  /          
                |  |  |   |  __  | /  /__\  \  |    /   |      \           
                |  |  |   | |  | | |   __   |  |    \   |  |\   \          
                \     /   | |  | | |  |  |  |  | |\  \  |  | \   \       
                 \___/    |_|  |_| |__|  |__|  |_| \__\ |__|  \__/        
                                                                              
                      - O R C A' S   B I G   F R I E N D -                    
                                      &                                       
                       - I N T E G R A L  F E E D E R -                       
                                                                              
 v1 FN, 2020, v2 2021, v3 2022-2024                                           
------------------------------------------------------------------------------


----------------------
SHARK INTEGRAL PACKAGE
----------------------

Number of atoms                             ...      8
Number of basis functions                   ...    173
Number of shells                            ...     67
Maximum angular momentum                    ...      3
Integral batch strategy                     ... SHARK/LIBINT Hybrid
RI-J (if used) integral strategy            ... SPLIT-RIJ (Revised 2003 algorithm where possible)
Printlevel                                  ...      1
Contraction scheme used                     ... SEGMENTED contraction
Prescreening option                         ... SCHWARTZ
   Thresh                                   ... 2.500e-11
   Tcut                                     ... 2.500e-12
   Tpresel                                  ... 2.500e-12 
Coulomb Range Separation                    ... NOT USED
Exchange Range Separation                   ... NOT USED
Multipole approximations                    ... NOT USED
Finite Nucleus Model                        ... NOT USED
CABS basis                                  ... NOT available
Auxiliary Coulomb fitting basis             ... AVAILABLE
   # of basis functions in Aux-J            ...    278
   # of shells in Aux-J                     ...     90
   Maximum angular momentum in Aux-J        ...      4
Auxiliary J/K fitting basis                 ... NOT available
Auxiliary Correlation fitting basis         ... NOT available
Auxiliary 'external' fitting basis          ... NOT available

Checking pre-screening integrals            ... done (  0.0 sec) Dimension = 67
   => SHARK Basis and OBASIS are compatible. Storing Pre-screening
Shell pair information
Shell pair cut-off parameter TPreSel        ...   2.5e-12
Total number of shell pairs                 ...      2278
Shell pairs after pre-screening             ...      2239
Total number of primitive shell pairs       ...      7140
Primitive shell pairs kept                  ...      5732
          la=0 lb=0:    558 shell pairs
          la=1 lb=0:    610 shell pairs
          la=1 lb=1:    171 shell pairs
          la=2 lb=0:    340 shell pairs
          la=2 lb=1:    180 shell pairs
          la=2 lb=2:     55 shell pairs
          la=3 lb=0:    170 shell pairs
          la=3 lb=1:     90 shell pairs
          la=3 lb=2:     50 shell pairs
          la=3 lb=3:     15 shell pairs

Checking whether 4 symmetric matrices of dimension 173 fit in memory
:Max Core in MB      =   2000.00
 MB in use           =      5.60
 MB left             =   1994.40
 MB needed           =      0.46
 Data fit in memory  = YES
Calculating RI/J V-Matrix + Cholesky decomp.... done (  0.0 sec)
Calculating Nuclear repulsion               ... done (  0.0 sec) ENN=    165.162899511774 Eh

Diagonalization of the overlap matrix:
Smallest eigenvalue                        ... 1.700e-04
Time for diagonalization                   ...    0.002 sec
Threshold for overlap eigenvalues          ... 1.000e-07
Number of eigenvalues below threshold      ... 0
Time for construction of square roots      ...    0.002 sec
Total time needed                          ...    0.004 sec

-------------------
DFT GRID GENERATION
-------------------

General Integration Accuracy     IntAcc      ... 4.388
Radial Grid Type                 RadialGrid  ... OptM3 with GC (2021)
Angular Grid (max. ang.)         AngularGrid ... 4 (Lebedev-302)
Angular grid pruning method      GridPruning ... 4 (adaptive)
Weight generation scheme         WeightScheme... mBecke (2022)
Basis function cutoff            BFCut       ... 1.0000e-11
Integration weight cutoff        WCut        ... 1.0000e-14
Partially contracted basis set               ... off
Rotationally invariant grid construction     ... off
Angular grids for H and He will be reduced by one unit

Total number of grid points                  ...    40165
Total number of batches                      ...      633
Average number of points per batch           ...       63
Average number of grid points per atom       ...     5021
Grids setup in   0.2 sec
Initializing property integral containers    ... done (  0.0 sec)

SHARK setup successfully completed in   0.3 seconds

Maximum memory used throughout the entire STARTUP-calculation: 22.0 MB
Текущая кодовая страница: 1251
-------------------------------------------------------------------------------
                                 ORCA GUESS
                   Start orbitals & Density for SCF / CASSCF
-------------------------------------------------------------------------------

------------
SCF SETTINGS
------------
Hamiltonian:
 Density Functional     Method          .... DFT(GTOs)
 Exchange Functional    Exchange        .... B88
   X-Alpha parameter    XAlpha          ....  0.666667
   Becke's b parameter  XBeta           ....  0.004200
 Correlation Functional Correlation     .... LYP
 Gradients option       PostSCFGGA      .... off
   NL short-range parameter             ....  4.000000
 RI-approximation to the Coulomb term is turned on
   Number of AuxJ basis functions       .... 278


General Settings:
 Integral files         IntName         .... triazole
 Hartree-Fock type      HFTyp           .... RHF
 Total Charge           Charge          ....    0
 Multiplicity           Mult            ....    1
 Number of Electrons    NEL             ....   36
 Basis Dimension        Dim             ....  173
 Nuclear Repulsion      ENuc            ....    165.1628995118 Eh

Convergence Acceleration:
 AO-DIIS                CNVDIIS         .... on
   Start iteration      DIISMaxIt       ....    12
   Startup error        DIISStart       ....  0.200000
   # of expansion vecs  DIISMaxEq       ....     5
   Bias factor          DIISBfac        ....   1.050
   Max. coefficient     DIISMaxC        ....  10.000
 MO-DIIS                CNVKDIIS        .... off
 Trust-Rad. Augm. Hess. CNVTRAH         .... auto
   Auto Start mean grad. ratio tolernc. ....  1.125000
   Auto Start start iteration           ....    50
   Auto Start num. interpolation iter.  ....    10
   Max. Number of Micro iterations      ....    24
   Max. Number of Macro iterations      .... Maxiter - #DIIS iter
   Number of Davidson start vectors     ....     2
   Converg. threshold    (grad. norm)   ....   1.000e-05
   Grad. Scal. Fac. for Micro threshold ....   0.100
   Minimum threshold for Micro iter.    ....   1.000e-02
   NR start threshold (gradient norm)   ....   1.000e-04
   Initial trust radius                 ....   0.400
   Minimum AH scaling param. (alpha)    ....   1.000
   Maximum AH scaling param. (alpha)    .... 1000.000
   Quad. conv. algorithm                .... NR
   White noise on init. David. guess    .... on
   Maximum white noise                  ....   0.010
   Pseudo random numbers                .... off
   Inactive MOs                         .... canonical
   Orbital update algorithm             .... Taylor
   Preconditioner                       .... Diag
   Full preconditioner red. dimension   ....   250
 SOSCF                 CNVSOSCF           .... on
   Start iteration     SOSCFMaxIt         ....   150
   Startup grad/error  SOSCFStart         ....  0.003300
   Hessian update      SOSCFHessUp        .... L-BFGS
   Autom. constraints  SOSCFAutoConstrain .... off
 Level Shifting         CNVShift        .... on
   Level shift para.    LevelShift      ....    0.2500
   Turn off err/grad.   ShiftErr        ....    0.0010
 Zerner damping         CNVZerner       .... off
 Static damping         CNVDamp         .... on
   Fraction old density DampFac         ....    0.7000
   Max. Damping (<1)    DampMax         ....    0.9800
   Min. Damping (>=0)   DampMin         ....    0.0000
   Turn off err/grad.   DampErr         ....    0.1000

SCF Procedure:
 Maximum # iterations   MaxIter         ....   125
 SCF integral mode      SCFMode         .... Direct
   Integral package                     .... SHARK and LIBINT hybrid scheme
 Reset frequency        DirectResetFreq ....    20
 Integral Threshold     Thresh          ....  2.500e-11 Eh
 Primitive CutOff       TCut            ....  2.500e-12 Eh

Convergence Tolerance:
 Convergence Check Mode ConvCheckMode   .... Total+1el-Energy
 Convergence forced     ConvForced      .... 0
 Energy Change          TolE            ....  1.000e-08 Eh
 1-El. energy change                    ....  1.000e-05 Eh
 Orbital Gradient       TolG            ....  1.000e-05
 Orbital Rotation angle TolX            ....  1.000e-05
 DIIS Error             TolErr          ....  5.000e-07

------------------------------
INITIAL GUESS: MODEL POTENTIAL
------------------------------
Loading Hartree-Fock densities                     ... done
Calculating cut-offs                               ... done
Initializing the effective Hamiltonian             ... done
Setting up the integral package (SHARK)            ... done
Starting the Coulomb interaction                   ... done (   0.0 sec)
Making the grid                                    ... done (   0.1 sec)
Mapping shells                                     ... done
Starting the XC term evaluation                    ... done (   0.1 sec)
  promolecular density results
     # of electrons  =     35.999231929
     EX              =    -30.888522335
     EC              =     -1.239843521
     EX+EC           =    -32.128365856
Transforming the Hamiltonian                       ... done (   0.0 sec)
Diagonalizing the Hamiltonian                      ... done (   0.0 sec)
Back transforming the eigenvectors                 ... done (   0.0 sec)
Now organizing SCF variables                       ... done
                      ------------------
                      INITIAL GUESS DONE (   0.3 sec)
                      ------------------
             **** ENERGY FILE WAS UPDATED (triazole.en.tmp) ****
Finished Guess after   0.3 sec
Maximum memory used throughout the entire GUESS-calculation: 13.8 MB
Текущая кодовая страница: 1251

-------------------------------------------------------------------------------------------
                                      ORCA LEAN-SCF
                              memory conserving SCF solver
-------------------------------------------------------------------------------------------

--------------------
CPCM SOLVATION MODEL
--------------------
CPCM parameters:
  Epsilon                                         ...      78.3550
  Refrac                                          ...       1.3328
  Rsolv                                           ...       1.3000
  Surface type                                    ... GAUSSIAN VDW
  Discretization scheme                           ... Constant charge density
    Threshold for H atoms                         ...       5.0000 (charges/Ang^2)
    Threshold for non-H atoms                     ...       5.0000 (charges/Ang^2)
  Epsilon function type                           ...         CPCM
Solvent:                                          ... WATER
SMD-CDS solvent descriptors:
  Soln                                            ...       1.3328
  Soln25                                          ...       1.3323
  Sola                                            ...       0.0000
  Solb                                            ...       0.0000
  Solg                                            ...       0.0000
  Solc                                            ...       0.0000
  Solh                                            ...       0.0000
Radii:
  Scheme                                          ... Element-dependent radii
  Radius for C  used is    3.4960 Bohr (=   1.8500 Ang.)
  Radius for N  used is    3.5716 Bohr (=   1.8900 Ang.)
  Radius for H  used is    2.2677 Bohr (=   1.2000 Ang.)
Calculating surface                               ...        done! (  0.0s)
Cavity surface points                             ...          714
Cavity Volume                                     ...     518.1105
Cavity Surface-area                               ...     337.5893
Calculating surface distance matrix               ...        done! (  0.0s)
Performing Cholesky decomposition & store         ...        done! (  0.0s)
Overall time for CPCM initialization              ...                 0.0s

----------------------------------------D-I-I-S--------------------------------------------
Iteration    Energy (Eh)           Delta-E    RMSDP     MaxDP     DIISErr   Damp  Time(sec)
-------------------------------------------------------------------------------------------
               ***  Starting incremental Fock matrix formation  ***
    1    -242.1969043992108936     0.00e+00  1.79e-03  3.23e-02  1.17e-01  0.700   0.6
    2    -242.2345711341644687    -3.77e-02  1.78e-03  3.64e-02  5.48e-02  0.700   0.6
                               ***Turning on AO-DIIS***
    3    -242.2491547264625069    -1.46e-02  9.40e-04  1.94e-02  2.00e-02  0.700   0.6
    4    -242.2576649040852885    -8.51e-03  1.43e-03  2.88e-02  9.59e-03  0.000   0.6
    5    -242.2763508319907828    -1.87e-02  4.27e-04  1.02e-02  4.29e-03  0.000   0.5
                              *** Initializing SOSCF ***
---------------------------------------S-O-S-C-F--------------------------------------
Iteration    Energy (Eh)           Delta-E    RMSDP     MaxDP     MaxGrad    Time(sec)
--------------------------------------------------------------------------------------
    6    -242.2765161389373816    -1.65e-04  1.82e-04  4.29e-03  1.33e-03     0.6
               *** Restarting incremental Fock matrix formation ***
    7    -242.2765275047702289    -1.14e-05  1.20e-04  2.79e-03  2.22e-04     0.6
    8    -242.2765261786968267     1.33e-06  1.39e-05  3.98e-04  5.48e-04     0.5
    9    -242.2765285482701074    -2.37e-06  2.75e-05  6.41e-04  5.69e-05     0.5
   10    -242.2765285100563801     3.82e-08  4.35e-06  7.01e-05  9.58e-05     0.5
   11    -242.2765286061171537    -9.61e-08  1.07e-05  2.59e-04  2.62e-05     0.5
   12    -242.2765286108855776    -4.77e-09  4.81e-06  1.17e-04  1.79e-05     0.5
                 **** Energy Check signals convergence ****

               *****************************************************
               *                     SUCCESS                       *
               *           SCF CONVERGED AFTER  12 CYCLES          *
               *****************************************************


SMD CDS free energy correction energy :                 0.91000     Kcal/mol
Total Energy after SMD CDS correction =              -242.275078445 Eh
             **** ENERGY FILE WAS UPDATED (triazole.en.tmp) ****

----------------
TOTAL SCF ENERGY
----------------

Total Energy       :       -242.27507844476131 Eh           -6592.64005 eV

Components:
Nuclear Repulsion  :        165.16289951177362 Eh            4494.31098 eV
Electronic Energy  :       -407.42495698866696 Eh          -11086.59671 eV
One Electron Energy:       -654.31959963249301 Eh          -17804.94149 eV
Two Electron Energy:        246.89464264382605 Eh            6718.34478 eV
CPCM Dielectric    :         -0.01447114672365 Eh              -0.39378 eV
SMD CDS (Gcds)     :          0.00145017885566 Eh               0.03946 eV

Virial components:
Potential Energy   :       -483.79636866604477 Eh          -13164.76848 eV
Kinetic Energy     :        241.52129022128346 Eh            6572.12843 eV
Virial Ratio       :          2.00312100114564

DFT components:
N(Alpha)           :       18.000003060285 electrons
N(Beta)            :       18.000003060285 electrons
N(Total)           :       36.000006120571 electrons
E(X)               :      -31.394591586428 Eh       
E(C)               :       -1.247705135873 Eh       
E(XC)              :      -32.642296722301 Eh       

CPCM Solvation Model Properties:
Surface-charge          :         -0.02466435780304
Corrected charge        :          0.00000000000000
Outlying charge corr.   :          0.00005869337387 Eh               0.00160 eV
Free-energy (cav+disp)  :          0.00145017885566 Eh               0.03946 eV

---------------
SCF CONVERGENCE
---------------

  Last Energy change         ...    4.7684e-09  Tolerance :   1.0000e-08
  Last MAX-Density change    ...    1.1661e-04  Tolerance :   1.0000e-07
  Last RMS-Density change    ...    4.8101e-06  Tolerance :   5.0000e-09
  Last DIIS Error            ...    1.3252e-03  Tolerance :   5.0000e-07
  Last Orbital Gradient      ...    1.7940e-05  Tolerance :   1.0000e-05
  Last Orbital Rotation      ...    3.1401e-05  Tolerance :   1.0000e-05


----------------
ORBITAL ENERGIES
----------------

  NO   OCC          E(Eh)            E(eV) 
   0   2.0000     -14.105378      -383.8269 
   1   2.0000     -14.042115      -382.1054 
   2   2.0000     -14.042102      -382.1050 
   3   2.0000      -9.933297      -270.2987 
   4   2.0000      -9.932977      -270.2900 
   5   2.0000      -1.009467       -27.4690 
   6   2.0000      -0.811466       -22.0811 
   7   2.0000      -0.742834       -20.2135 
   8   2.0000      -0.565902       -15.3990 
   9   2.0000      -0.563905       -15.3446 
  10   2.0000      -0.484514       -13.1843 
  11   2.0000      -0.420647       -11.4464 
  12   2.0000      -0.396439       -10.7876 
  13   2.0000      -0.392430       -10.6786 
  14   2.0000      -0.286859        -7.8058 
  15   2.0000      -0.262753        -7.1499 
  16   2.0000      -0.260363        -7.0848 
  17   2.0000      -0.240173        -6.5355 
  18   0.0000      -0.044485        -1.2105 
  19   0.0000       0.010600         0.2885 
  20   0.0000       0.040088         1.0908 
  21   0.0000       0.077258         2.1023 
  22   0.0000       0.085537         2.3276 
  23   0.0000       0.095823         2.6075 
  24   0.0000       0.142240         3.8705 
  25   0.0000       0.155782         4.2390 
  26   0.0000       0.180842         4.9210 
  27   0.0000       0.187373         5.0987 
  28   0.0000       0.199614         5.4318 
*Only the first 10 virtual orbitals were printed.

                    ********************************
                    * MULLIKEN POPULATION ANALYSIS *
                    ********************************

-----------------------
MULLIKEN ATOMIC CHARGES
-----------------------
   0 C :   -0.117977
   1 C :   -0.117808
   2 N :   -0.201911
   3 N :   -0.201723
   4 N :    0.040546
   5 H :    0.154401
   6 H :    0.154389
   7 H :    0.290082
Sum of atomic charges:   -0.0000000

--------------------------------
MULLIKEN REDUCED ORBITAL CHARGES
--------------------------------
  0 C s       :     3.248420  s :     3.248420
      pz      :     0.887980  p :     2.769267
      px      :     0.951496
      py      :     0.929791
      dz2     :     0.026301  d :     0.089347
      dxz     :     0.012488
      dyz     :     0.016250
      dx2y2   :     0.018866
      dxy     :     0.015443
      f0      :     0.001331  f :     0.010943
      f+1     :     0.001960
      f-1     :     0.001409
      f+2     :     0.001978
      f-2     :     0.001602
      f+3     :     0.001212
      f-3     :     0.001453

  1 C s       :     3.248417  s :     3.248417
      pz      :     0.965898  p :     2.769118
      px      :     0.842492
      py      :     0.960729
      dz2     :     0.017688  d :     0.089330
      dxz     :     0.015737
      dyz     :     0.013884
      dx2y2   :     0.022135
      dxy     :     0.019885
      f0      :     0.000602  f :     0.010943
      f+1     :     0.002292
      f-1     :     0.001346
      f+2     :     0.002101
      f-2     :     0.001660
      f+3     :     0.001181
      f-3     :     0.001761

  2 N s       :     3.605378  s :     3.605378
      pz      :     0.990671  p :     3.516401
      px      :     1.375580
      py      :     1.150150
      dz2     :     0.018308  d :     0.074600
      dxz     :     0.013193
      dyz     :     0.014997
      dx2y2   :     0.014414
      dxy     :     0.013688
      f0      :     0.000726  f :     0.005532
      f+1     :     0.000808
      f-1     :     0.001035
      f+2     :     0.001019
      f-2     :     0.000835
      f+3     :     0.000395
      f-3     :     0.000713

  3 N s       :     3.605277  s :     3.605277
      pz      :     1.319857  p :     3.516305
      px      :     0.915539
      py      :     1.280909
      dz2     :     0.015730  d :     0.074608
      dxz     :     0.014667
      dyz     :     0.010221
      dx2y2   :     0.014436
      dxy     :     0.019554
      f0      :     0.000891  f :     0.005533
      f+1     :     0.000710
      f-1     :     0.000448
      f+2     :     0.000659
      f-2     :     0.000640
      f+3     :     0.001195
      f-3     :     0.000990

  4 N s       :     3.396800  s :     3.396800
      pz      :     1.171110  p :     3.443833
      px      :     1.061612
      py      :     1.211110
      dz2     :     0.018697  d :     0.110855
      dxz     :     0.031492
      dyz     :     0.013768
      dx2y2   :     0.024320
      dxy     :     0.022578
      f0      :     0.001214  f :     0.007966
      f+1     :     0.000802
      f-1     :     0.001135
      f+2     :     0.001210
      f-2     :     0.001303
      f+3     :     0.001325
      f-3     :     0.000977

  5 H s       :     0.823814  s :     0.823814
      pz      :     0.003961  p :     0.021785
      px      :     0.012899
      py      :     0.004925

  6 H s       :     0.823828  s :     0.823828
      pz      :     0.010605  p :     0.021783
      px      :     0.003609
      py      :     0.007569

  7 H s       :     0.673711  s :     0.673711
      pz      :     0.013436  p :     0.036207
      px      :     0.015088
      py      :     0.007684



                     *******************************
                     * LOEWDIN POPULATION ANALYSIS *
                     *******************************

----------------------
LOEWDIN ATOMIC CHARGES
----------------------
   0 C :   -0.281258
   1 C :   -0.281278
   2 N :    0.004320
   3 N :    0.004347
   4 N :    0.071003
   5 H :    0.141818
   6 H :    0.141857
   7 H :    0.199190

-------------------------------
LOEWDIN REDUCED ORBITAL CHARGES
-------------------------------
  0 C s       :     2.809308  s :     2.809308
      pz      :     0.969907  p :     2.950522
      px      :     0.997658
      py      :     0.982957
      dz2     :     0.111677  d :     0.452851
      dxz     :     0.088200
      dyz     :     0.088363
      dx2y2   :     0.094370
      dxy     :     0.070242
      f0      :     0.008733  f :     0.068577
      f+1     :     0.012578
      f-1     :     0.008665
      f+2     :     0.012370
      f-2     :     0.009995
      f+3     :     0.007314
      f-3     :     0.008921

  1 C s       :     2.809328  s :     2.809328
      pz      :     0.980332  p :     2.950475
      px      :     0.983066
      py      :     0.987077
      dz2     :     0.072191  d :     0.452891
      dxz     :     0.104212
      dyz     :     0.066432
      dx2y2   :     0.108598
      dxy     :     0.101458
      f0      :     0.004143  f :     0.068583
      f+1     :     0.016194
      f-1     :     0.005324
      f+2     :     0.012512
      f-2     :     0.010305
      f+3     :     0.007716
      f-3     :     0.012390

  2 N s       :     3.133831  s :     3.133831
      pz      :     1.058684  p :     3.571646
      px      :     1.372018
      py      :     1.140944
      dz2     :     0.069411  d :     0.259917
      dxz     :     0.045676
      dyz     :     0.061377
      dx2y2   :     0.044767
      dxy     :     0.038687
      f0      :     0.003882  f :     0.030287
      f+1     :     0.004609
      f-1     :     0.005289
      f+2     :     0.005207
      f-2     :     0.004056
      f+3     :     0.003034
      f-3     :     0.004210

  3 N s       :     3.133770  s :     3.133770
      pz      :     1.293950  p :     3.571627
      px      :     1.043234
      py      :     1.234442
      dz2     :     0.046932  d :     0.259962
      dxz     :     0.056049
      dyz     :     0.029321
      dx2y2   :     0.056893
      dxy     :     0.070767
      f0      :     0.004614  f :     0.030294
      f+1     :     0.003850
      f-1     :     0.003088
      f+2     :     0.003344
      f-2     :     0.003946
      f+3     :     0.006032
      f-3     :     0.005421

  4 N s       :     2.960868  s :     2.960868
      pz      :     1.190776  p :     3.549634
      px      :     1.130807
      py      :     1.228051
      dz2     :     0.058625  d :     0.385892
      dxz     :     0.108005
      dyz     :     0.056413
      dx2y2   :     0.080689
      dxy     :     0.082160
      f0      :     0.005688  f :     0.032604
      f+1     :     0.003306
      f-1     :     0.004227
      f+2     :     0.003597
      f-2     :     0.005688
      f+3     :     0.006118
      f-3     :     0.003980

  5 H s       :     0.796641  s :     0.796641
      pz      :     0.011453  p :     0.061541
      px      :     0.035886
      py      :     0.014202

  6 H s       :     0.796618  s :     0.796618
      pz      :     0.029579  p :     0.061525
      px      :     0.010536
      py      :     0.021410

  7 H s       :     0.696412  s :     0.696412
      pz      :     0.038751  p :     0.104398
      px      :     0.043374
      py      :     0.022273



                      *****************************
                      * MAYER POPULATION ANALYSIS *
                      *****************************

  NA   - Mulliken gross atomic population
  ZA   - Total nuclear charge
  QA   - Mulliken gross atomic charge
  VA   - Mayer's total valence
  BVA  - Mayer's bonded valence
  FA   - Mayer's free valence

  ATOM       NA         ZA         QA         VA         BVA        FA
  0 C      6.1180     6.0000    -0.1180     4.0633     4.0633     0.0000
  1 C      6.1178     6.0000    -0.1178     4.0632     4.0632    -0.0000
  2 N      7.2019     7.0000    -0.2019     2.9994     2.9994    -0.0000
  3 N      7.2017     7.0000    -0.2017     2.9994     2.9994     0.0000
  4 N      6.9595     7.0000     0.0405     3.5078     3.5078    -0.0000
  5 H      0.8456     1.0000     0.1544     0.9799     0.9799    -0.0000
  6 H      0.8456     1.0000     0.1544     0.9799     0.9799    -0.0000
  7 H      0.7099     1.0000     0.2901     0.9257     0.9257    -0.0000

  Mayer bond orders larger than 0.100000
B(  0-C ,  1-C ) :   1.4402 B(  0-C ,  3-N ) :   1.5909 B(  0-C ,  5-H ) :   0.9574 
B(  1-C ,  2-N ) :   1.5909 B(  1-C ,  6-H ) :   0.9574 B(  2-N ,  3-N ) :   0.1354 
B(  2-N ,  4-N ) :   1.2401 B(  3-N ,  4-N ) :   1.2401 B(  4-N ,  7-H ) :   0.8892 


-------
TIMINGS
-------

Total SCF time: 0 days 0 hours 0 min 7 sec 

Total time                  ....       7.079 sec
Sum of individual times     ....       6.585 sec  ( 93.0%)

SCF preparation             ....       0.059 sec  (  0.8%)
Fock matrix formation       ....       6.066 sec  ( 85.7%)
  Startup                   ....       0.002 sec  (  0.0% of F)
  Split-RI-J                ....       1.068 sec  ( 17.6% of F)
  XC integration            ....       3.998 sec  ( 65.9% of F)
    Basis function eval.    ....       0.919 sec  ( 23.0% of XC)
    Density eval.           ....       0.735 sec  ( 18.4% of XC)
    XC-Functional eval.     ....       0.086 sec  (  2.2% of XC)
    XC-Potential eval.      ....       2.127 sec  ( 53.2% of XC)
  CPCM terms                ....       1.327 sec  ( 21.9% of F)
Diagonalization             ....       0.000 sec  (  0.0%)
Density matrix formation    ....       0.102 sec  (  1.4%)
Total Energy calculation    ....       0.073 sec  (  1.0%)
Population analysis         ....       0.017 sec  (  0.2%)
Orbital Transformation      ....       0.016 sec  (  0.2%)
Orbital Orthonormalization  ....       0.000 sec  (  0.0%)
DIIS solution               ....       0.129 sec  (  1.8%)
SOSCF solution              ....       0.123 sec  (  1.7%)
Finished LeanSCF after   7.1 sec

Maximum memory used throughout the entire LEANSCF-calculation: 15.7 MB
Текущая кодовая страница: 1251

------------------------------------------------------------------------------
                         ORCA PROPERTY INTEGRAL CALCULATIONS
------------------------------------------------------------------------------

GBWName                                   ... triazole.gbw
Number of atoms                           ...      8
Number of basis functions                 ...    173
Max core memory                           ...   2000 MB

Dipole integrals                          ... YES
Quadrupole integrals                      ...  NO
Linear momentum integrals                 ...  NO
Angular momentum integrals                ...  NO
Higher moments length integrals           ...  NO
Higher moments velocity integrals         ...  NO
Kinetic energy integrals                  ...  NO
GIAO right hand sides                     ...  NO
GIAO dipole derivative integrals          ...  NO
SOC integrals                             ...  NO
EPR diamagnetic integrals (GIAO)          ...  NO
EPR gauge integrals                       ...  NO
Field gradient integrals                  ...  NO (   0 nuclei)
Spin-dipole/Fermi contact integrals       ...  NO (   0 nuclei)
Contact density integrals                 ...  NO (   0 nuclei)
Nucleus-orbit integrals                   ...  NO (   0 nuclei)
Geometric perturbations                   ...  NO (   8 nuclei)

Choice of electric origin   ... Center of mass
Position of electric origin ... (  6.4817,  1.1837, -0.3104) 
Choice of magnetic origin   ... GIAO
Position of magnetic origin ... (  0.0000,  0.0000,  0.0000) 

Calculating integrals                     ... Electric Dipole (Length)     done (  0.0 sec)

Property integrals calculated in   0.0 sec

Maximum memory used throughout the entire PROPINT-calculation: 14.1 MB


-------------------------------------------------------------------------------
                          DFT DISPERSION CORRECTION                            
                                                                               
                              DFTD3 V3.1  Rev 1                                
                          USING Becke-Johnson damping                          
-------------------------------------------------------------------------------
The BLYP functional is recognized
Active option DFTDOPT                   ...         4   

molecular C6(AA) [au] = 765.261868 


            DFT-D V3
 parameters
 s6 scaling factor         :     1.0000 
 a1 scaling factor         :     0.4298 
 s8 scaling factor         :     2.6996 
 a2 scaling factor         :     4.2359 
 ad hoc parameters k1-k3   :    16.0000     1.3333    -4.0000 

 Edisp/kcal,au: -7.714437247903  -0.012293736977 
 E6   /kcal   :  -3.055520640 
 E8   /kcal   :  -4.658916608 
 % E8         :  60.392177143 

-------------------------   ----------------
Dispersion correction           -0.012293737
-------------------------   ----------------


-------------------------   --------------------
FINAL SINGLE POINT ENERGY      -242.287372181739
-------------------------   --------------------

Текущая кодовая страница: 1251
------------------------------------------------------------------------------
                         ORCA SCF GRADIENT CALCULATION
------------------------------------------------------------------------------

Nuc. rep. gradient        (SHARK) ... done (  0.0 sec)
HCore & Overlap gradient  (SHARK) ... done (  0.0 sec)
Split-RIJ-J gradient      (SHARK) ... done (  0.4 sec)
XC gradient                       ... done (  1.5 sec)
CPCM gradient                     ... done (  0.3 sec)
SMD gradient                      ... done (  0.0 sec)
Dispersion correction             ... done (  0.0 sec)

-------------------
DISPERSION GRADIENT
-------------------

   1   C   :   -0.000885827   -0.000179411   -0.000264401
   2   C   :   -0.000315998    0.000476408   -0.000748258
   3   N   :    0.000265883    0.000144167   -0.000029950
   4   N   :   -0.000034351   -0.000201460    0.000225106
   5   N   :    0.000948886   -0.000234463    0.000799549
   6   H   :    0.000222225    0.000086696    0.000015874
   7   H   :    0.000019594   -0.000146407    0.000187819
   8   H   :   -0.000220413    0.000054471   -0.000185739

Difference to translation invariance:
           :    0.0000000000   -0.0000000000    0.0000000000

Difference to rotation invariance:
           :    0.0000000000    0.0000000000    0.0000000000

Norm of the Dispersion gradient    ...    0.0019373281
RMS gradient                       ...    0.0003954554
MAX gradient                       ...    0.0009488864

------------------
CARTESIAN GRADIENT
------------------

   1   C   :   -0.007486115    0.003475175   -0.008287424
   2   C   :   -0.009818282    0.000821431   -0.006386956
   3   N   :    0.005424845    0.003489643   -0.001208467
   4   N   :   -0.001503345   -0.004455046    0.004628347
   5   N   :    0.010748883   -0.002567245    0.008863002
   6   H   :   -0.001413512    0.000203731   -0.001015320
   7   H   :   -0.001237870    0.000397003   -0.001132603
   8   H   :    0.005285395   -0.001364691    0.004539420

Difference to translation invariance:
           :   -0.0000000000   -0.0000000000    0.0000000000

Difference to rotation invariance:
           :    0.0000118299   -0.0000262765   -0.0000445291

Norm of the Cartesian gradient     ...    0.0248674907
RMS gradient                       ...    0.0050760553
MAX gradient                       ...    0.0107488831

-------
TIMINGS
-------

Total SCF gradient time     ....        2.287 sec

One electron gradient       ....       0.048 sec  (  2.1%)
RI-J Coulomb gradient       ....       0.414 sec  ( 18.1%)
XC gradient                 ....       1.506 sec  ( 65.9%)
CPCM gradient               ....       0.281 sec  ( 12.3%)
   A-Matrix (El+Nuc)        ....       0.013 sec  (  0.6%)
   Potential                ....       0.268 sec  ( 11.7%)
SMD gradient                ....       0.001 sec  (  0.0%)

Maximum memory used throughout the entire SCFGRAD-calculation: 32.6 MB
Текущая кодовая страница: 1251

------------------------------------------------------------------------------
                         ORCA PROPERTY INTEGRAL CALCULATIONS
------------------------------------------------------------------------------

GBWName                                   ... triazole.gbw
Number of atoms                           ...      8
Number of basis functions                 ...    173
Max core memory                           ...   2000 MB

Dipole integrals                          ...  NO
Quadrupole integrals                      ...  NO
Linear momentum integrals                 ...  NO
Angular momentum integrals                ...  NO
Higher moments length integrals           ...  NO
Higher moments velocity integrals         ...  NO
Kinetic energy integrals                  ...  NO
GIAO right hand sides                     ...  NO
GIAO dipole derivative integrals          ...  NO
SOC integrals                             ...  NO
EPR diamagnetic integrals (GIAO)          ...  NO
EPR gauge integrals                       ...  NO
Field gradient integrals                  ...  NO (   0 nuclei)
Spin-dipole/Fermi contact integrals       ...  NO (   0 nuclei)
Contact density integrals                 ...  NO (   0 nuclei)
Nucleus-orbit integrals                   ...  NO (   0 nuclei)
Geometric perturbations                   ... YES (   8 nuclei)

Choice of electric origin   ... Center of mass
Position of electric origin ... (  6.4817,  1.1837, -0.3104) 
Choice of magnetic origin   ... GIAO
Position of magnetic origin ... (  0.0000,  0.0000,  0.0000) 

Calculating integrals                     ... Geometrical perturbation right hand sides

-----------------------
GEOMETRIC PERTURBATIONS (8 nuclei)
-----------------------

MaxCore                            ...   2000 MB
Number of batches                  ...      1

BATCH   0: Atoms    0 -    7 ( 24 perturbations)
   => H(core) and overlap derivative integrals     ... done (     0.1 sec)
   => Making and storing internal U-coefficients   ... done (     0.2 sec)
   => RI-J derivative integrals                    ... done (     0.9 sec)
   => RI-J response operators                      ... done (     0.2 sec)
   => XC derivative integrals                      ... done (    21.9 sec)
   => XC response operators                        ... done (     6.3 sec)
   => CPCM derivative integrals                    ... done (     3.2 sec)
   => CPCM response operators                      ... done (     3.9 sec)
   => Completing and storing right hand sides      ... done (     0.0 sec)
   => Total time for right hand sides =  33.9 sec

  geometrical perturbations done ( 33.9 sec)

Property integrals calculated in  33.9 sec

Maximum memory used throughout the entire PROPINT-calculation: 38.9 MB
Текущая кодовая страница: 1251
------------------------------------------------------------------------------
                            ORCA SCF RESPONSE CALCULATION
------------------------------------------------------------------------------

GBWName                                 ... triazole.gbw
Number of atoms                         ...      8
Number of basis functions               ...    173
Max core memory                         ...   2000 MB

Electric field perturbation             ...  NO
Quadrupolar field perturbation          ...  NO
Magnetic field perturbation (no GIAO)   ...  NO
Magnetic field perturbation (with GIAO) ...  NO
Linear momentum (velocity) perturbation ...  NO
Spin-orbit coupling perturbation        ...  NO
Choice of electric origin               ... Center of mass
Position of electric origin             ...     6.481724     1.183681    -0.310379
Choice of magnetic origin               ... GIAO
Position of magnetic origin             ...     0.000000     0.000000     0.000000
Nuclear geometric perturbations         ... YES (  24 perturbations)
Nucleus-orbit perturbations             ...  NO (   0 perturbations)
Spin-dipole/Fermi contact perturbations ...  NO (   0 perturbations)

Total number of real perturbations      ...     24
Total number of imaginary perturbations ...      0
Total number of triplet perturbations   ...      0
Total number of SOC perturbations       ...      0


                                **********************
                                * REAL PERTURBATIONS *
                                **********************



-------------------
SHARK CP-SCF DRIVER
-------------------

Dimension of the orbital basis          ...    173
Dimension of the CPSCF-problem          ...   2790
Number of operators                     ...      1
Max. number of iterations               ...    128
Convergence Tolerance                   ... 1.0e-04
Number of perturbations                 ...     24
Perturbation type                       ... REAL

----------------------------
POPLE LINEAR EQUATION SOLVER
----------------------------

  ITERATION   0:   ||err||_max =   7.6588e-01 (   3.2 sec   0/ 24 done)
  ITERATION   1:   ||err||_max =   7.0430e-02 (   3.1 sec   0/ 24 done)
  ITERATION   2:   ||err||_max =   2.2989e-02 (   3.4 sec   0/ 24 done)
  ITERATION   3:   ||err||_max =   6.7117e-03 (   3.1 sec   0/ 24 done)
  ITERATION   4:   ||err||_max =   1.9601e-03 (   3.1 sec   0/ 24 done)
  ITERATION   5:   ||err||_max =   6.7178e-04 (   3.1 sec   1/ 24 done)
  ITERATION   6:   ||err||_max =   1.5747e-04 (   3.5 sec   9/ 24 done)
  ITERATION   7:   ||err||_max =   6.7377e-05 (   2.4 sec  24/ 24 done)

CP-SCF equations solved in  26.5 sec
Response densities calculated in   0.0 sec

Maximum memory used throughout the entire SCFRESP-calculation: 26.7 MB
Текущая кодовая страница: 1251

------------------------------------------------------------------------------
                              ORCA PROPERTY CALCULATIONS
------------------------------------------------------------------------------

GBWName                                 ... triazole.gbw
Number of atoms                         ...      8
Number of basis functions               ...    173
Max core memory                         ...   2000 MB

Electric properties:
Dipole moment                           ...  NO
Quadrupole moment                       ...  NO
Static polarizability (Dipole/Dipole)   ...  NO
Static polarizability (Dipole/Quad.)    ...  NO
Static polarizability (Quad./Quad.)     ...  NO
Static polarizability (Velocity)        ...  NO
Static hyperpolarizability              ...  NO

Atomic electric properties:
Dipole moment                           ...  NO
Quadrupole moment                       ...  NO
Static polarizability                   ...  NO

Choice of electric origin               ... Center of mass
Position of electric origin             ...     6.481724     1.183681    -0.310379

General magnetic properties:
Magnetizability                         ...  NO

EPR properties:
g-Tensor (aka g-matrix)                 ...  NO
Zero-Field splitting spin-orbit         ...  NO
Zero-field splitting spin-spin          ...  NO
Hyperfine couplings                     ...  NO (   0 nuclei)
Quadrupole couplings                    ...  NO (   0 nuclei)
Contact density                         ...  NO (   0 nuclei)

NMR properties:
Chemical shifts                         ...  NO (   0 nuclei)
Spin-rotation constants                 ...  NO (   0 nuclei)
Spin-spin couplings                     ...  NO (   0 nuclei,    0 pairs)

Choice of magnetic origin               ... GIAO
Position of magnetic origin             ...     0.000000     0.000000     0.000000

Properties with geometric perturbations:
SCF Hessian                             ... YES
IR spectrum                             ... YES
VCD spectrum                            ...  NO
X-ray spectroscopy properties:
SCF XES/XAS/RIXS spectra                ...  NO

SCF SOC stabilization energy            ...  NO
Diagonal Born-Oppenheimer correction    ...  NO

-----------
SCF HESSIAN
-----------

Occupied/Occupied contributions to the Hessian:
   => Occupied/Occupied contributions              ... done (  0.0 sec)
Perturbed density contributions to the Hessian:
   => Perturbed density contributions              ... done (  0.0 sec)
Explicit contributions to the Hessian:
   => Nuclear repulsion Hessian                    ... done (  0.0 sec)
   => HCore and overlap Hessian                    ... done (  1.0 sec)
   => RI-J Hessian                                 ... done (  3.1 sec)
   => XC-Hessian                                   ... done ( 10.1 sec)
   => CPCM-Hessian                                 ... done (  2.0 sec)
   => Van der Waals-Hessian                        ... done (  1.2 sec)
   => SMD-Hessian                                  ... done (  0.2 sec)
   => Explicit contributions done
Dipole derivatives                                 ... done (  0.0 sec)
Mass weighting the Hessian           ... done
Calculating normal modes             ... done
Scaling frequencies                  ... done

-----------------------
VIBRATIONAL FREQUENCIES
-----------------------

Scaling factor for frequencies =  1.000000000  (already applied!)

     0:       0.00 cm**-1
     1:       0.00 cm**-1
     2:       0.00 cm**-1
     3:       0.00 cm**-1
     4:       0.00 cm**-1
     5:       0.00 cm**-1
     6:     460.16 cm**-1
     7:     656.29 cm**-1
     8:     680.50 cm**-1
     9:     805.56 cm**-1
    10:     872.09 cm**-1
    11:     928.15 cm**-1
    12:     931.52 cm**-1
    13:    1056.15 cm**-1
    14:    1087.51 cm**-1
    15:    1103.51 cm**-1
    16:    1229.52 cm**-1
    17:    1260.08 cm**-1
    18:    1358.61 cm**-1
    19:    1401.67 cm**-1
    20:    1493.50 cm**-1
    21:    3212.10 cm**-1
    22:    3225.48 cm**-1
    23:    3586.34 cm**-1


------------
NORMAL MODES
------------

These modes are the Cartesian displacements weighted by the diagonal matrix
M(i,i)=1/sqrt(m[i]) where m[i] is the mass of the displaced atom
Thus, these vectors are normalized but *not* orthogonal

                  0          1          2          3          4          5    
      0       0.000000   0.000000   0.000000   0.000000   0.000000   0.000000
      1       0.000000   0.000000   0.000000   0.000000   0.000000   0.000000
      2       0.000000   0.000000   0.000000   0.000000   0.000000   0.000000
      3       0.000000   0.000000   0.000000   0.000000   0.000000   0.000000
      4       0.000000   0.000000   0.000000   0.000000   0.000000   0.000000
      5       0.000000   0.000000   0.000000   0.000000   0.000000   0.000000
      6       0.000000   0.000000   0.000000   0.000000   0.000000   0.000000
      7       0.000000   0.000000   0.000000   0.000000   0.000000   0.000000
      8       0.000000   0.000000   0.000000   0.000000   0.000000   0.000000
      9       0.000000   0.000000   0.000000   0.000000   0.000000   0.000000
     10       0.000000   0.000000   0.000000   0.000000   0.000000   0.000000
     11       0.000000   0.000000   0.000000   0.000000   0.000000   0.000000
     12       0.000000   0.000000   0.000000   0.000000   0.000000   0.000000
     13       0.000000   0.000000   0.000000   0.000000   0.000000   0.000000
     14       0.000000   0.000000   0.000000   0.000000   0.000000   0.000000
     15       0.000000   0.000000   0.000000   0.000000   0.000000   0.000000
     16       0.000000   0.000000   0.000000   0.000000   0.000000   0.000000
     17       0.000000   0.000000   0.000000   0.000000   0.000000   0.000000
     18       0.000000   0.000000   0.000000   0.000000   0.000000   0.000000
     19       0.000000   0.000000   0.000000   0.000000   0.000000   0.000000
     20       0.000000   0.000000   0.000000   0.000000   0.000000   0.000000
     21       0.000000   0.000000   0.000000   0.000000   0.000000   0.000000
     22       0.000000   0.000000   0.000000   0.000000   0.000000   0.000000
     23       0.000000   0.000000   0.000000   0.000000   0.000000   0.000000
                  6          7          8          9         10         11    
      0      -0.002565  -0.082225   0.039358   0.026910  -0.044441  -0.364368
      1       0.005233   0.183381  -0.087224  -0.060213   0.099498  -0.135734
      2       0.004457   0.151547  -0.072164  -0.049697   0.082224  -0.033208
      3      -0.002708   0.082251   0.039653   0.026754   0.044827   0.043851
      4       0.005307  -0.183150  -0.087936  -0.059675  -0.099694  -0.236793
      5       0.004651  -0.151280  -0.072692  -0.049169  -0.082624   0.309770
      6      -0.013962  -0.062013  -0.085724  -0.001181  -0.003703   0.258405
      7       0.031653   0.138274   0.190609   0.002841   0.008037   0.122765
      8       0.026023   0.114116   0.157682   0.002264   0.006593  -0.007965
      9      -0.013934   0.062157  -0.085420  -0.001270   0.003554   0.005032
     10       0.031955  -0.138856   0.190109   0.002920  -0.008125   0.180249
     11       0.025949  -0.114575   0.157297   0.002323  -0.006505  -0.215420
     12       0.054181  -0.000085   0.079968  -0.007973  -0.000101   0.058307
     13      -0.120205   0.000201  -0.178909   0.017879   0.000003   0.070497
     14      -0.099668   0.000113  -0.147743   0.014715   0.000051  -0.052696
     15       0.011236  -0.207048   0.018140  -0.228718   0.226410  -0.373015
     16      -0.025654   0.461561  -0.039846   0.509211  -0.503819  -0.201440
     17      -0.020675   0.380966  -0.033339   0.420549  -0.416061   0.036707
     18       0.010919   0.206678   0.019046  -0.227438  -0.227444  -0.053969
     19      -0.025184  -0.460909  -0.041805   0.506647   0.507004  -0.286684
     20      -0.020531  -0.380772  -0.034617   0.418862   0.418761   0.318039
     21      -0.324576  -0.000766   0.288316  -0.038417  -0.000094  -0.224751
     22       0.711707   0.001878  -0.635503   0.084182   0.000316  -0.263210
     23       0.595437   0.001424  -0.529871   0.070430   0.000135   0.186217
                 12         13         14         15         16         17    
      0       0.119714   0.062324  -0.080369   0.209227   0.034316  -0.282346
      1      -0.032776   0.090115  -0.007919   0.078825   0.018035   0.035325
      2       0.104460  -0.075169  -0.033959   0.018570  -0.003203  -0.196047
      3       0.123458  -0.088637   0.040229   0.021926   0.004095  -0.233726
      4      -0.023854  -0.083593  -0.038379  -0.135544   0.025869   0.092238
      5       0.096431   0.052934   0.068422   0.175981  -0.029050  -0.238771
      6       0.174401  -0.034158  -0.068106  -0.062551   0.061223   0.331338
      7       0.200277  -0.023048  -0.073260  -0.212462  -0.073077  -0.019492
      8      -0.147848   0.009317   0.051612   0.222774   0.121713   0.203650
      9      -0.174014   0.011085  -0.060486   0.262919  -0.144420   0.240878
     10      -0.203109   0.029115  -0.074768   0.162633  -0.022228  -0.122877
     11       0.151357  -0.029149   0.057574  -0.054356  -0.051569   0.279484
     12      -0.167499   0.080148   0.110652  -0.385387   0.072257  -0.074142
     13       0.040629  -0.020055   0.127086   0.095538   0.082713   0.019585
     14      -0.140377   0.067859  -0.094212  -0.324562  -0.061141  -0.063803
     15       0.092661   0.044637  -0.110645   0.238393   0.062109  -0.325593
     16       0.384938   0.445745   0.315408   0.109934  -0.380710   0.115225
     17      -0.415780  -0.515704  -0.442117  -0.002996   0.494849  -0.316546
     18      -0.491090  -0.611436   0.520484  -0.006643  -0.585621  -0.375554
     19      -0.282272  -0.306670   0.157204  -0.168581  -0.220325   0.058728
     20       0.074736   0.039225   0.092989   0.200671  -0.051042  -0.274861
     21      -0.176971   0.087223   0.317756  -0.415103   0.217827  -0.070655
     22       0.046889  -0.022427   0.370061   0.099325   0.252874   0.012242
     23      -0.150816   0.074036  -0.269590  -0.346132  -0.184597  -0.054397
                 18         19         20         21         22         23    
      0      -0.079348   0.118482   0.068803   0.057197   0.062896   0.001156
      1       0.052176   0.198755  -0.087215   0.015868   0.020645  -0.000902
      2      -0.106069  -0.176238   0.143077   0.011874   0.009190   0.001689
      3       0.125788  -0.207513  -0.169355  -0.014642   0.010448   0.002045
      4       0.002182  -0.176678  -0.027987   0.035123  -0.037570   0.000105
      5       0.065877   0.101123  -0.058007  -0.050448   0.051134   0.000957
      6      -0.038449   0.070197   0.137795   0.000654  -0.001894  -0.000147
      7       0.030411   0.071033   0.030163   0.000132  -0.000111  -0.000372
      8      -0.057829  -0.047861   0.038257   0.000200  -0.000900   0.000382
      9       0.069793  -0.056295  -0.045333  -0.000193  -0.001065   0.000413
     10       0.004109  -0.074274   0.075553   0.000318   0.000860   0.000318
     11       0.032812   0.059331  -0.116169  -0.000492  -0.001619  -0.000146
     12      -0.088378   0.004966  -0.064363  -0.000762  -0.001014  -0.056955
     13      -0.101799  -0.001549  -0.074357  -0.000908   0.000234   0.014019
     14       0.074412   0.004603   0.054472   0.000682  -0.000828  -0.047789
     15      -0.070205   0.185596   0.057199  -0.651338  -0.677823  -0.001174
     16      -0.169130  -0.335502   0.233255  -0.193727  -0.205649  -0.000754
     17       0.167138   0.507098  -0.250915  -0.119471  -0.119447   0.000214
     18      -0.199925   0.598407   0.294888   0.148869  -0.137267   0.000357
     19      -0.137862   0.139801   0.173498  -0.406900   0.392749   0.000956
     20       0.058762   0.155866  -0.049381   0.573206  -0.549788  -0.001024
     21       0.509276   0.014672   0.455603  -0.000415  -0.003649   0.750417
     22       0.594190  -0.000819   0.530200  -0.000584   0.000907  -0.184764
     23      -0.433381   0.008739  -0.387658   0.000474  -0.003058   0.630078


-----------
IR SPECTRUM
-----------

 Mode   freq       eps      Int      T**2         TX        TY        TZ
       cm**-1   L/(mol*cm) km/mol    a.u.
----------------------------------------------------------------------------
  6:    460.16   0.016571   83.74  0.011238  (-0.034478  0.076559  0.064713)
  7:    656.29   0.000000    0.00  0.000000  (-0.000166  0.000129  0.000104)
  8:    680.50   0.009447   47.74  0.004332  ( 0.021440 -0.047841 -0.039799)
  9:    805.56   0.019988  101.01  0.007743  (-0.028788  0.064071  0.053004)
 10:    872.09   0.000000    0.00  0.000000  ( 0.000001  0.000343  0.000082)
 11:    928.15   0.009861   49.83  0.003316  (-0.033001 -0.038153  0.027764)
 12:    931.52   0.003883   19.62  0.001301  (-0.026829  0.006939 -0.023087)
 13:   1056.15   0.001028    5.19  0.000304  (-0.013184  0.003045 -0.010979)
 14:   1087.51   0.016885   85.33  0.004845  ( 0.039669  0.046090 -0.033872)
 15:   1103.51   0.003805   19.23  0.001076  ( 0.024502 -0.006176  0.020918)
 16:   1229.52   0.001093    5.52  0.000277  ( 0.009300  0.011103 -0.008227)
 17:   1260.08   0.000018    0.09  0.000004  (-0.001576  0.000316 -0.001346)
 18:   1358.61   0.001297    6.55  0.000298  ( 0.009395  0.011697 -0.008533)
 19:   1401.67   0.002594   13.11  0.000578  ( 0.018147 -0.004414  0.015123)
 20:   1493.50   0.000018    0.09  0.000004  ( 0.000667  0.001479 -0.001107)
 21:   3212.10   0.000001    0.01  0.000000  ( 0.000178  0.000227 -0.000152)
 22:   3225.48   0.000043    0.22  0.000004  ( 0.001591 -0.000423  0.001212)
 23:   3586.34   0.047759  241.35  0.004156  ( 0.048454 -0.011929  0.040812)

* The epsilon (eps) is given for a Dirac delta lineshape.
** The dipole moment derivative (T) already includes vibrational overlap.

The first frequency considered to be a vibration is 6
The total number of vibrations considered is 18


--------------------------
THERMOCHEMISTRY AT 298.15K
--------------------------

Temperature         ...   298.15 K
Pressure            ...     1.00 atm
Total Mass          ...    69.07 AMU
Quasi RRHO          ...     True
[...]
      8      -0.035944  -0.114304   0.138146   0.001894  -0.006192  -0.005920
      9       0.019350  -0.062346  -0.074687  -0.000985  -0.003369   0.017378
     10      -0.043930   0.139378   0.166271   0.002385   0.007624   0.196285
     11      -0.035748   0.115007   0.137682   0.001826   0.006098  -0.228090
     12      -0.061149   0.000112   0.064037  -0.007488   0.000035   0.044725
     13       0.135564  -0.000446  -0.143654   0.016865   0.000035   0.048820
     14       0.112172  -0.000285  -0.118704   0.013898  -0.000037  -0.033729
     15      -0.016672   0.206463   0.011317  -0.227663  -0.227022  -0.351393
     16       0.037847  -0.460384  -0.024609   0.507115   0.505580  -0.233496
     17       0.030738  -0.380006  -0.020811   0.418856   0.417231   0.086924
     18      -0.016594  -0.206217   0.012259  -0.227230   0.226435  -0.075769
     19       0.038016   0.460104  -0.026608   0.506648  -0.505900  -0.277407
     20       0.031136   0.380224  -0.022075   0.419038  -0.417885   0.295968
     21       0.323030   0.000707   0.300206  -0.044260  -0.000061  -0.246996
     22      -0.706658  -0.001301  -0.660362   0.096904  -0.000394  -0.295802
     23      -0.590812  -0.001254  -0.550601   0.081018  -0.000056   0.212566
                 12         13         14         15         16         17    
      0      -0.079959   0.099275   0.059775   0.158443   0.060682  -0.318287
      1       0.044793   0.016147   0.090461   0.044205   0.008826   0.053707
      2      -0.097487   0.034286  -0.076915   0.032913   0.022209  -0.237852
      3      -0.116961  -0.048507  -0.088204   0.039150  -0.027169  -0.282977
      4       0.012540   0.043696  -0.085542  -0.092892   0.031016   0.094396
      5      -0.078830  -0.079401   0.055505   0.133710  -0.052306  -0.268124
      6      -0.185353   0.053043  -0.035953   0.043698   0.082446   0.363100
      7      -0.234746   0.086715  -0.034385  -0.143583  -0.067756   0.021249
      8       0.183532  -0.076069   0.022064   0.197138   0.126790   0.171654
      9       0.215814   0.091783   0.020882   0.232841  -0.149721   0.205904
     10       0.219746   0.080406   0.032638   0.074577  -0.010685  -0.161671
     11      -0.148839  -0.047445  -0.028083   0.035806  -0.068329   0.307492
     12       0.096786  -0.136464   0.073231  -0.415585   0.067777  -0.009516
     13      -0.025121  -0.160554  -0.012706   0.103188   0.077672   0.002355
     14       0.083128   0.120783   0.055157  -0.350378  -0.057357  -0.008063
     15      -0.050623   0.127952   0.042445   0.174276   0.089942  -0.357525
     16      -0.381220  -0.263880   0.454883   0.179700  -0.392568   0.025412
     17       0.434722   0.389081  -0.528210  -0.122660   0.524291  -0.225082
     18       0.517355  -0.512882  -0.597955  -0.145195  -0.621044  -0.256465
     19       0.277492  -0.144710  -0.304032  -0.186966  -0.216009   0.133646
     20      -0.056589  -0.103632   0.043722   0.147636  -0.075456  -0.300775
     21       0.111510  -0.336213   0.086081  -0.451387   0.124809   0.003895
     22      -0.021914  -0.395727  -0.008624   0.112422   0.144505  -0.005251
     23       0.085582   0.290065   0.056781  -0.378569  -0.105555   0.008823
                 18         19         20         21         22         23    
      0      -0.079585  -0.141855   0.055588   0.059312   0.061560   0.001819
      1       0.057987  -0.197942  -0.073110   0.016563   0.020335  -0.000832
      2      -0.113231   0.162595   0.118837   0.012167   0.008825   0.001961
      3       0.134498   0.191171  -0.140392  -0.014367   0.010934   0.002373
      4       0.005999   0.185664  -0.024120   0.034085  -0.038965  -0.000214
      5       0.065943  -0.120907  -0.046930  -0.049014   0.053058   0.001518
      6      -0.038444  -0.049852   0.114246   0.000447  -0.001758  -0.000074
      7       0.015377  -0.065820   0.029620   0.000071  -0.000039  -0.000340
      8      -0.039559   0.052562   0.026185   0.000161  -0.000913   0.000383
      9       0.047787   0.061927  -0.031126  -0.000210  -0.001064   0.000405
     10      -0.005658   0.062531   0.065646   0.000246   0.000740   0.000266
     11       0.032603  -0.042103  -0.096539  -0.000414  -0.001473  -0.000090
     12      -0.065089   0.004187  -0.068156  -0.000874  -0.001212  -0.057623
     13      -0.075342  -0.000532  -0.078896  -0.000990   0.000319   0.014181
     14       0.055101   0.002985   0.057860   0.000720  -0.001037  -0.048447
     15      -0.067134  -0.212035   0.044695  -0.671875  -0.657351  -0.003511
     16      -0.230263   0.323266   0.217955  -0.199193  -0.198789  -0.001513
     17       0.242968  -0.506666  -0.239127  -0.123838  -0.116451  -0.000133
     18      -0.289776  -0.597491   0.280731   0.145805  -0.143070  -0.000064
     19      -0.176147  -0.120963   0.158460  -0.394318   0.404777   0.002419
     20       0.056350  -0.177970  -0.039012   0.555977  -0.567149  -0.003020
     21       0.477236  -0.004075   0.477132  -0.000621  -0.007345   0.749741
     22       0.555865  -0.002906   0.554675  -0.000634   0.001839  -0.184477
     23      -0.404878   0.001070  -0.405060   0.000424  -0.006203   0.630827


-----------
IR SPECTRUM
-----------

 Mode   freq       eps      Int      T**2         TX        TY        TZ
       cm**-1   L/(mol*cm) km/mol    a.u.
----------------------------------------------------------------------------
  6:    514.98   0.014290   72.21  0.008659  ( 0.030563 -0.067218 -0.056628)
  7:    659.82   0.000000    0.00  0.000000  ( 0.000160 -0.000092 -0.000073)
  8:    691.56   0.011585   58.55  0.005228  ( 0.023584 -0.052518 -0.043741)
  9:    809.37   0.021039  106.32  0.008112  (-0.029424  0.065558  0.054299)
 10:    876.95   0.000000    0.00  0.000000  (-0.000121 -0.000212  0.000012)
 11:    939.96   0.012056   60.92  0.004002  (-0.035266 -0.042146  0.031344)
 12:    940.77   0.005727   28.94  0.001900  ( 0.033521 -0.007104  0.026936)
 13:   1058.10   0.015698   79.33  0.004630  (-0.039160 -0.044964  0.032780)
 14:   1061.07   0.000716    3.62  0.000211  (-0.009493  0.004067 -0.010190)
 15:   1114.58   0.002089   10.56  0.000585  ( 0.018103 -0.004500  0.015396)
 16:   1196.62   0.000125    0.63  0.000033  ( 0.003138  0.003817 -0.002848)
 17:   1215.91   0.000033    0.17  0.000009  (-0.002181  0.000499 -0.001876)
 18:   1342.38   0.001560    7.88  0.000363  ( 0.010403  0.012875 -0.009413)
 19:   1400.33   0.002850   14.40  0.000635  (-0.019037  0.004601 -0.015859)
 20:   1473.38   0.000273    1.38  0.000058  ( 0.003860  0.005269 -0.003896)
 21:   3196.86   0.000000    0.00  0.000000  (-0.000004 -0.000065  0.000091)
 22:   3210.75   0.000001    0.01  0.000000  ( 0.000276 -0.000097  0.000104)
 23:   3497.64   0.051940  262.48  0.004634  ( 0.051123 -0.012606  0.043148)

* The epsilon (eps) is given for a Dirac delta lineshape.
** The dipole moment derivative (T) already includes vibrational overlap.

The first frequency considered to be a vibration is 6
The total number of vibrations considered is 18


--------------------------
THERMOCHEMISTRY AT 298.15K
--------------------------

Temperature         ...   298.15 K
Pressure            ...     1.00 atm
Total Mass          ...    69.07 AMU
Quasi RRHO          ...     True
Cut-Off Frequency   ...     1.00 cm^-1

Throughout the following assumptions are being made:
  (1) The electronic state is orbitally nondegenerate
  (2) There are no thermally accessible electronically excited states
  (3) Hindered rotations indicated by low frequency modes are not
      treated as such but are treated as vibrations and this may
      cause some error
  (4) All equations used are the standard statistical mechanics
      equations for an ideal gas
  (5) All vibrations are strictly harmonic

freq.     514.98  E(vib)   ...       0.13 
freq.     659.82  E(vib)   ...       0.08 
freq.     691.56  E(vib)   ...       0.07 
freq.     809.37  E(vib)   ...       0.05 
freq.     876.95  E(vib)   ...       0.04 
freq.     939.96  E(vib)   ...       0.03 
freq.     940.77  E(vib)   ...       0.03 
freq.    1058.10  E(vib)   ...       0.02 
freq.    1061.07  E(vib)   ...       0.02 
freq.    1114.58  E(vib)   ...       0.01 
freq.    1196.62  E(vib)   ...       0.01 
freq.    1215.91  E(vib)   ...       0.01 
freq.    1342.38  E(vib)   ...       0.01 
freq.    1400.33  E(vib)   ...       0.00 
freq.    1473.38  E(vib)   ...       0.00 
freq.    3196.86  E(vib)   ...       0.00 
freq.    3210.75  E(vib)   ...       0.00 
freq.    3497.64  E(vib)   ...       0.00 

------------
INNER ENERGY
------------

The inner energy is: U= E(el) + E(ZPE) + E(vib) + E(rot) + E(trans)
    E(el)   - is the total energy from the electronic structure calculation
              = E(kin-el) + E(nuc-el) + E(el-el) + E(nuc-nuc)
    E(ZPE)  - the the zero temperature vibrational energy from the frequency calculation
    E(vib)  - the the finite temperature correction to E(ZPE) due to population
              of excited vibrational states
    E(rot)  - is the rotational thermal energy
    E(trans)- is the translational thermal energy

Summary of contributions to the inner energy U:
Electronic energy                ...   -242.28809788 Eh
Zero point energy                ...      0.05741218 Eh      36.03 kcal/mol
Thermal vibrational correction   ...      0.00082363 Eh       0.52 kcal/mol
Thermal rotational correction    ...      0.00141627 Eh       0.89 kcal/mol
Thermal translational correction ...      0.00141627 Eh       0.89 kcal/mol
-----------------------------------------------------------------------
Total thermal energy                   -242.22702952 Eh


Summary of corrections to the electronic energy:
(perhaps to be used in another calculation)
Total thermal correction                  0.00365618 Eh       2.29 kcal/mol
Non-thermal (ZPE) correction              0.05741218 Eh      36.03 kcal/mol
-----------------------------------------------------------------------
Total correction                          0.06106836 Eh      38.32 kcal/mol


--------
ENTHALPY
--------

The enthalpy is H = U + kB*T
                kB is Boltzmann's constant
Total thermal energy              ...   -242.22702952 Eh 
Thermal Enthalpy correction       ...      0.00094421 Eh       0.59 kcal/mol
-----------------------------------------------------------------------
Total Enthalpy                    ...   -242.22608531 Eh


Note: Only C1 symmetry has been detected, increase convergence thresholds 
      if your molecule has a higher symmetry. Symmetry factor of 1.0 is   
      used for the rotational entropy correction. 
 

Note: Rotational entropy computed according to Herzberg 
Infrared and Raman Spectra, Chapter V,1, Van Nostrand Reinhold, 1945 
Point Group:  C1, Symmetry Number:   1  
Rotational constants in cm-1:     0.334712     0.324056     0.164649 

Vibrational entropy computed according to the QRRHO of S. Grimme
Chem.Eur.J. 2012 18 9955 using a reference frequency of 100.0 cm-1


-------
ENTROPY
-------

The entropy contributions are T*S = T*(S(el)+S(vib)+S(rot)+S(trans))
     S(el)   - electronic entropy
     S(vib)  - vibrational entropy
     S(rot)  - rotational entropy
     S(trans)- translational entropy
The entropies will be listed as multiplied by the temperature to get
units of energy

Electronic entropy                ...      0.00000000 Eh      0.00 kcal/mol
Vibrational entropy               ...      0.00105881 Eh      0.66 kcal/mol
Rotational entropy                ...      0.01141110 Eh      7.16 kcal/mol
Translational entropy             ...      0.01834709 Eh     11.51 kcal/mol
-----------------------------------------------------------------------
Final entropy term                ...      0.03081700 Eh     19.34 kcal/mol

In case the symmetry of your molecule has not been determined correctly
or in case you have a reason to use a different symmetry number we print 
out the resulting rotational entropy values for sn=1,12:

 non-linear molecules -----------------------------------
|  sn= 1 | S(rot)=       0.01141110 Eh      7.16 kcal/mol|
|  sn= 2 | S(rot)=       0.01075664 Eh      6.75 kcal/mol|
|  sn= 3 | S(rot)=       0.01037381 Eh      6.51 kcal/mol|
|  sn= 4 | S(rot)=       0.01010219 Eh      6.34 kcal/mol|
|  sn= 5 | S(rot)=       0.00989150 Eh      6.21 kcal/mol|
|  sn= 6 | S(rot)=       0.00971935 Eh      6.10 kcal/mol|
|  sn= 7 | S(rot)=       0.00957381 Eh      6.01 kcal/mol|
|  sn= 8 | S(rot)=       0.00944773 Eh      5.93 kcal/mol|
|  sn= 9 | S(rot)=       0.00933652 Eh      5.86 kcal/mol|
|  sn=10 | S(rot)=       0.00923704 Eh      5.80 kcal/mol|
|  sn=11 | S(rot)=       0.00914705 Eh      5.74 kcal/mol|
|  sn=12 | S(rot)=       0.00906490 Eh      5.69 kcal/mol|
 linear molecules ---------------------------------------
|  Dinfh | S(rot)=       0.00702905 Eh      4.41 kcal/mol|
|  Cinfv | S(rot)=       0.00768351 Eh      4.82 kcal/mol|
 --------------------------------------------------------


-------------------
GIBBS FREE ENERGY
-------------------

The Gibbs free energy is G = H - T*S

Total enthalpy                    ...   -242.22608531 Eh 
Total entropy correction          ...     -0.03081700 Eh    -19.34 kcal/mol
-----------------------------------------------------------------------
Final Gibbs free energy         ...   -242.25690230 Eh

For completeness - the Gibbs free energy minus the electronic energy
G-E(el)                           ...      0.03119557 Eh     19.58 kcal/mol


Maximum memory used throughout the entire PROP-calculation: 34.6 MB
Текущая кодовая страница: 1251

--------------------------------
SUGGESTED CITATIONS FOR THIS RUN
--------------------------------

Below you find a list of papers that are relevant to this ORCA run
We neither can nor want to force you to cite these papers, but we appreciate if you do
You receive ORCA, which is the product of decades of hard work by many enthusiastic individuals, for free
The only thing we kindly ask in return is that you cite our papers,
We deeply appreciate it, if you show your appreciation for ORCA by not just citing the generic ORCA reference.

Please note that relegating all ORCA citations to the supporting information does *not* help us.
SI sections are not indexed - citations you put there will not count into any citation statistics
But we need these citations in order to attract the funding resources that allow us to do what we are doing

Therefore, if you are a happy ORCA user, please consider citing a few of the papers listed below in the main body of your paper

In addition to the list printed below, the program has created the file triazole.bibtex that contains the list in bibtex format
You can import this file easily into all common literature databanks and citation aid programs

It goes without saying that in many instances, there are alternative algorithms to achieve similar
results as the ones you have gotten from ORCA. It is, of course, also the case that in some instances
ORCA just re-implements algorithms worked out by others. We are fully aware of that and we are also
fully appreciative of our colleagues work. Hence this citation list should not be read as indicating
that the listed papers, which are focused on our own work, are the only ones worth citing. It simply
meant to make it easier for users to cite ORCA specific papers. It is not a substitute for doing your
own literature research and citing the relevant literature in a scientifically appropriate manner.

List of essential papers. We consider these as the minimum necessary citations

  1. Neese, F.
     Software update: the ORCA program system, version 6.0
     WIRES Comput. Molec. Sci. 2025 15(1), e70019
     doi.org/10.1002/wcms.70019

List of papers to cite with high priority. The work reported in these papers was absolutely
necessary for this run to complete.
Our perspective: the developers of density functionals and basis sets usually get cited in chemistry papers
Good! But without the algorithms to do something with them, the functionals or basis sets would not do anything.
Hence, in our opinion, the algorithm design and method developments papers are equally worthy of getting cited

  1. Neese, F.
     An improvement of the resolution of the identity approximation for the formation of the Coulomb matrix
     J. Comp. Chem. 2003 24(14), 1740-1747
     doi.org/10.1002/jcc.10318
  2. Grimme, S.; Antony, J.; Ehrlich, S.; Krieg, H.
     A consistent and accurate ab initio parametrization of density functional dispersion correction (DFT-D) for the 94 elements H-Pu
     J. Chem. Phys. 2010 132 , 154104
     doi.org/10.1063/1.3382344
  3. Grimme, S.; Ehrlich, S.; Goerigk, L.
     Effect of the damping function in dispersion corrected density functional theory
     J. Comput. Chem. 2011 32(7), 1456-1465
     doi.org/10.1002/jcc.21759
  4. Bykov, D.; Petrenko, T.; Izsak, R.; Kossmann, S.; Becker, U.; Valeev, E.; Neese, F.
     Efficient implementation of the analytic second derivatives of Hartree-Fock and hybrid DFT energies: a detailed analysis of different approximations
     Molec. Phys. 2015 113 , 1961-1977
     doi.org/10.1080/00268976.2015.1025114
  5. Garcia-Rates, M.; Neese, F.
     Efficient implementation of the analytical second derivatives of hartree-fock and hybrid DFT energies within the framework of the conductor-like polarizable continuum model
     J. Comput. Chem. 2019 40 , 1816-1828
     doi.org/10.1002/jcc.25833
  6. Garcia-Rates, M.; Neese, F.
     Effect of the Solute Cavity on the Solvation Energy and its Derivatives within the Framework of the Gaussian Charge Scheme
     J. Comput. Chem. 2020 41 , 922-939
     doi.org/10.1002/jcc.26139
  7. Neese, F.
     The SHARK Integral Generation and Digestion System
     J. Comp. Chem. 2022 44(3), 381
     doi.org/10.1002/jcc.26942

List of suggested additional citations. These are papers that are important in the 'surrounding' of 
of this run, or papers that preceded the highly important papers. If you like your results we are grateful for a citation.

  1. Neese, F.
     The ORCA program system
     WIRES Comput. Molec. Sci. 2012 2(1), 73-78
     doi.org/10.1002/wcms.81
  2. Neese, F.
     Software update: the ORCA program system, version 4.0
     WIRES Comput. Molec. Sci. 2018 8(1), 1-6
     doi.org/10.1002/wcms.1327
  3. Neese, F.; Wennmohs, F.; Becker, U.; Riplinger, C.
     The ORCA quantum chemistry program package
     J. Chem. Phys. 2020 152(22), 224108
     doi.org/10.1063/5.0004608
  4. Neese, F.
     Software update: The ORCA program system—Version 5.0
     WIRES Comput. Molec. Sci. 2022 12(1), e1606
     doi.org/10.1002/wcms.1606

List of optional additional citations

  1. Neese, F.
     Approximate second-order SCF convergence for spin unrestricted wavefunctions
     Chem. Phys. Lett. 2000 325(1-3), 93-98
     doi.org/10.1016/s0009-2614(00)00662-x

Timings for individual modules:

Sum of individual times          ...      106.631 sec (=   1.777 min)
Startup calculation              ...        1.173 sec (=   0.020 min)   1.1 %
SCF iterations                   ...       19.781 sec (=   0.330 min)  18.6 %
Property integrals               ...       34.002 sec (=   0.567 min)  31.9 %
SCF Response                     ...       26.617 sec (=   0.444 min)  25.0 %
Property calculations            ...       17.938 sec (=   0.299 min)  16.8 %
SCF Gradient evaluation          ...        7.055 sec (=   0.118 min)   6.6 %
Geometry relaxation              ...        0.065 sec (=   0.001 min)   0.1 %
                             ****ORCA TERMINATED NORMALLY****
TOTAL RUN TIME: 0 days 0 hours 3 minutes 5 seconds 881 msec
